<?xml version="1.0" encoding="ISO-8859-1"?>
<modeling>
 <generator>
  <i name="program" type="string">vasp </i>
  <i name="version" type="string">6.4.1  </i>
  <i name="subversion" type="string">05Apr23 (build Feb 12 2025 00:37:39) complex                          parallel </i>
  <i name="platform" type="string">LinuxIFC </i>
  <i name="date" type="string">2025 02 14 </i>
  <i name="time" type="string">05:34:53 </i>
 </generator>
 <incar>
  <i type="string" name="SYSTEM">SCF</i>
  <i type="int" name="ISTART">     0</i>
  <i type="int" name="ICHARG">     2</i>
  <i type="int" name="NELM">    60</i>
  <i type="int" name="NELMIN">     6</i>
  <i name="EDIFF">      0.00000100</i>
  <i name="EDIFFG">     -0.00000100</i>
  <i name="ENCUT">    600.00000000</i>
  <i type="string" name="LREAL">Auto</i>
  <i type="int" name="ISMEAR">     0</i>
  <i name="SIGMA">      0.05000000</i>
  <i type="logical" name="LWAVE"> F  </i>
  <i type="logical" name="LCHARG"> F  </i>
 </incar>
 <primitive_cell>
  <structure name="primitive_cell" >
   <crystal>
    <varray name="basis" >
     <v>       7.40170591       0.00000000       0.00000000 </v>
     <v>      -3.70085295       6.41006527       0.00000000 </v>
     <v>       0.00000000       0.00000000      20.00000000 </v>
    </varray>
    <i name="volume">    948.90835877 </i>
    <varray name="rec_basis" >
     <v>       0.13510399       0.07800233       0.00000000 </v>
     <v>       0.00000000       0.15600465       0.00000000 </v>
     <v>       0.00000000       0.00000000       0.05000000 </v>
    </varray>
   </crystal>
   <varray name="positions" >
    <v>       0.00000000       0.00000000       0.50050000 </v>
    <v>       0.33333333       0.00000000       0.50050000 </v>
    <v>       0.66666667       0.00000000       0.50000000 </v>
    <v>       1.00000000       0.33333333       0.50000000 </v>
    <v>       0.33333333       0.33333333       0.50000000 </v>
    <v>       0.66666667       0.33333333       0.50000000 </v>
    <v>       1.00000000       0.66666667       0.50000000 </v>
    <v>       0.33333333       0.66666667       0.50000000 </v>
    <v>       0.66666667       0.66666667       0.50000000 </v>
    <v>       0.22222222       0.11111111       0.50000000 </v>
    <v>       0.55555556       0.11111111       0.50000000 </v>
    <v>       0.88888889       0.11111111       0.50000000 </v>
    <v>       0.22222222       0.44444444       0.50000000 </v>
    <v>       0.55555556       0.44444444       0.50000000 </v>
    <v>       0.88888889       0.44444444       0.50000000 </v>
    <v>       0.22222222       0.77777778       0.50000000 </v>
    <v>       0.55555556       0.77777778       0.50000000 </v>
    <v>       0.88888889       0.77777778       0.50000000 </v>
   </varray>
  </structure>
  <varray name="primitive_index" >
   <v type="int" >        1 </v>
   <v type="int" >        2 </v>
   <v type="int" >        3 </v>
   <v type="int" >        4 </v>
   <v type="int" >        5 </v>
   <v type="int" >        6 </v>
   <v type="int" >        7 </v>
   <v type="int" >        8 </v>
   <v type="int" >        9 </v>
   <v type="int" >       10 </v>
   <v type="int" >       11 </v>
   <v type="int" >       12 </v>
   <v type="int" >       13 </v>
   <v type="int" >       14 </v>
   <v type="int" >       15 </v>
   <v type="int" >       16 </v>
   <v type="int" >       17 </v>
   <v type="int" >       18 </v>
  </varray>
 </primitive_cell>
 <kpoints>
  <generation param="Gamma">
   <v type="int" name="divisions">       7        7        1 </v>
   <v name="usershift">      0.00000000       0.00000000       0.00000000 </v>
   <v name="genvec1">      0.14285714       0.00000000       0.00000000 </v>
   <v name="genvec2">      0.00000000       0.14285714       0.00000000 </v>
   <v name="genvec3">      0.00000000       0.00000000       1.00000000 </v>
   <v name="shift">      0.00000000       0.00000000       0.00000000 </v>
  </generation>
  <varray name="kpointlist" >
   <v>       0.00000000       0.00000000       0.00000000 </v>
   <v>       0.14285714       0.00000000       0.00000000 </v>
   <v>       0.00000000       0.14285714       0.00000000 </v>
   <v>       0.28571429       0.00000000       0.00000000 </v>
   <v>       0.00000000       0.28571429       0.00000000 </v>
   <v>       0.42857143       0.00000000       0.00000000 </v>
   <v>       0.00000000       0.42857143       0.00000000 </v>
   <v>       0.14285714       0.14285714       0.00000000 </v>
   <v>      -0.28571429       0.14285714       0.00000000 </v>
   <v>       0.28571429       0.14285714       0.00000000 </v>
   <v>      -0.14285714       0.42857143       0.00000000 </v>
   <v>      -0.42857143       0.28571429       0.00000000 </v>
   <v>       0.42857143       0.14285714       0.00000000 </v>
   <v>      -0.14285714      -0.42857143       0.00000000 </v>
   <v>       0.28571429       0.28571429       0.00000000 </v>
   <v>       0.42857143       0.28571429       0.00000000 </v>
  </varray>
  <varray name="weights" >
   <v>       0.02040816 </v>
   <v>       0.08163265 </v>
   <v>       0.04081633 </v>
   <v>       0.08163265 </v>
   <v>       0.04081633 </v>
   <v>       0.08163265 </v>
   <v>       0.04081633 </v>
   <v>       0.08163265 </v>
   <v>       0.04081633 </v>
   <v>       0.08163265 </v>
   <v>       0.08163265 </v>
   <v>       0.08163265 </v>
   <v>       0.08163265 </v>
   <v>       0.04081633 </v>
   <v>       0.08163265 </v>
   <v>       0.04081633 </v>
  </varray>
 </kpoints>
 <parameters>
  <separator name="general" >
   <i type="string" name="SYSTEM">SCF</i>
   <i type="logical" name="LCOMPAT"> F  </i>
  </separator>
  <separator name="electronic" >
   <i type="string" name="PREC">normal</i>
   <i name="ENMAX">    600.00000000</i>
   <i name="ENAUG">    644.87300000</i>
   <i name="EDIFF">      0.00000100</i>
   <i type="int" name="IALGO">    38</i>
   <i type="int" name="IWAVPR">    10</i>
   <i type="int" name="NBANDS">    46</i>
   <i type="int" name="NBANDSLOW">    -1</i>
   <i type="int" name="NBANDSHIGH">    -1</i>
   <i name="NELECT">     72.00000000</i>
   <i type="int" name="TURBO">     0</i>
   <i type="int" name="IRESTART">     0</i>
   <i type="int" name="NREBOOT">     0</i>
   <i type="int" name="NMIN">     0</i>
   <i name="EREF">      0.00000000</i>
   <separator name="electronic smearing" >
    <i type="int" name="ISMEAR">     0</i>
    <i name="SIGMA">      0.05000000</i>
    <i name="KSPACING">      0.50000000</i>
    <i type="logical" name="KGAMMA"> T  </i>
    <i type="logical" name="KBLOWUP"> T  </i>
   </separator>
   <separator name="electronic projectors" >
    <i type="logical" name="LREAL"> T  </i>
    <v name="ROPT">     -0.00050000</v>
    <i type="int" name="LMAXPAW">  -100</i>
    <i type="int" name="LMAXMIX">     2</i>
    <i type="logical" name="NLSPLINE"> F  </i>
   </separator>
   <separator name="electronic startup" >
    <i type="int" name="ISTART">     0</i>
    <i type="int" name="ICHARG">     2</i>
    <i type="int" name="INIWAV">     1</i>
   </separator>
   <separator name="electronic spin" >
    <i type="int" name="ISPIN">     1</i>
    <i type="logical" name="LNONCOLLINEAR"> F  </i>
    <v name="MAGMOM">      1.00000000      1.00000000      1.00000000      1.00000000      1.00000000      1.00000000      1.00000000      1.00000000      1.00000000      1.00000000      1.00000000      1.00000000      1.00000000      1.00000000      1.00000000      1.00000000      1.00000000      1.00000000</v>
    <i name="NUPDOWN">     -1.00000000</i>
    <i type="logical" name="LSORBIT"> F  </i>
    <v name="SAXIS">      0.00000000      0.00000000      1.00000000</v>
    <i type="logical" name="LSPIRAL"> F  </i>
    <v name="QSPIRAL">      0.00000000      0.00000000      0.00000000</v>
    <i type="logical" name="LZEROZ"> F  </i>
   </separator>
   <separator name="electronic exchange-correlation" >
    <i type="logical" name="LASPH"> F  </i>
    <i type="logical" name="LMETAGGA"> F  </i>
   </separator>
   <separator name="electronic convergence" >
    <i type="int" name="NELM">    60</i>
    <i type="int" name="NELMDL">    -5</i>
    <i type="int" name="NELMIN">     6</i>
    <i name="ENINI">    600.00000000</i>
    <separator name="electronic convergence detail" >
     <i type="logical" name="LDIAG"> T  </i>
     <i type="logical" name="LSUBROT"> F  </i>
     <i name="WEIMIN">      0.00000000</i>
     <i name="EBREAK">      0.00000000</i>
     <i name="DEPER">      0.30000000</i>
     <i type="int" name="NRMM">     4</i>
     <i name="TIME">      0.40000000</i>
    </separator>
   </separator>
   <separator name="electronic mixer" >
    <i name="AMIX">      0.40000000</i>
    <i name="BMIX">      1.00000000</i>
    <i name="AMIN">      0.10000000</i>
    <i name="AMIX_MAG">      1.60000000</i>
    <i name="BMIX_MAG">      1.00000000</i>
    <separator name="electronic mixer details" >
     <i type="int" name="IMIX">     4</i>
     <i type="logical" name="MIXFIRST"> F  </i>
     <i type="int" name="MAXMIX">   -45</i>
     <i name="WC">    100.00000000</i>
     <i type="int" name="INIMIX">     1</i>
     <i type="int" name="MIXPRE">     1</i>
     <i type="int" name="MREMOVE">     5</i>
    </separator>
   </separator>
   <separator name="electronic dipolcorrection" >
    <i type="logical" name="LDIPOL"> F  </i>
    <i type="logical" name="LMONO"> F  </i>
    <i type="int" name="IDIPOL">     0</i>
    <i name="EPSILON">      1.00000000</i>
    <v name="DIPOL">   -100.00000000   -100.00000000   -100.00000000</v>
    <i name="EFIELD">      0.00000000</i>
   </separator>
  </separator>
  <separator name="grids" >
   <i type="int" name="NGX">    48</i>
   <i type="int" name="NGY">    48</i>
   <i type="int" name="NGZ">   120</i>
   <i type="int" name="NGXF">    96</i>
   <i type="int" name="NGYF">    96</i>
   <i type="int" name="NGZF">   240</i>
   <i type="logical" name="ADDGRID"> F  </i>
  </separator>
  <separator name="ionic" >
   <i type="int" name="NSW">     0</i>
   <i type="int" name="IBRION">    -1</i>
   <i type="int" name="MDALGO">     0</i>
   <i type="int" name="ISIF">     2</i>
   <i name="PSTRESS">      0.00000000</i>
   <i name="EDIFFG">     -0.00000100</i>
   <i type="int" name="NFREE">     0</i>
   <i name="POTIM">      0.50000000</i>
   <i name="SMASS">     -3.00000000</i>
   <i name="SCALEE">      1.00000000</i>
  </separator>
  <separator name="ionic md" >
   <i name="TEBEG">      0.00010000</i>
   <i name="TEEND">      0.00010000</i>
   <i type="int" name="NBLOCK">     1</i>
   <i type="int" name="KBLOCK">     1</i>
   <i type="int" name="NPACO">   256</i>
   <i name="APACO">     10.00000000</i>
  </separator>
  <separator name="symmetry" >
   <i type="int" name="ISYM">     2</i>
   <i name="SYMPREC">      0.00001000</i>
  </separator>
  <separator name="dos" >
   <i type="int" name="LORBIT">     0</i>
   <v name="RWIGS">     -1.00000000</v>
   <i type="int" name="NEDOS">   301</i>
   <i name="EMIN">     10.00000000</i>
   <i name="EMAX">    -10.00000000</i>
   <i name="EFERMI">      0.00000000</i>
  </separator>
  <separator name="writing" >
   <i type="int" name="NWRITE">     2</i>
   <i type="logical" name="LWAVE"> F  </i>
   <i type="logical" name="LDOWNSAMPLE"> F  </i>
   <i type="logical" name="LCHARG"> F  </i>
   <i type="logical" name="LPARD"> F  </i>
   <i type="logical" name="LVTOT"> F  </i>
   <i type="logical" name="LVHAR"> F  </i>
   <i type="logical" name="LELF"> F  </i>
   <i type="logical" name="LOPTICS"> F  </i>
   <v name="STM">      0.00000000      0.00000000      0.00000000      0.00000000      0.00000000      0.00000000      0.00000000</v>
  </separator>
  <separator name="performance" >
   <i type="int" name="NPAR">     2</i>
   <i type="int" name="NSIM">     4</i>
   <i type="int" name="NBLK">    -1</i>
   <i type="logical" name="LPLANE"> T  </i>
   <i type="logical" name="LSCALAPACK"> T  </i>
   <i type="logical" name="LSCAAWARE"> F  </i>
   <i type="logical" name="LSCALU"> F  </i>
   <i type="logical" name="LASYNC"> F  </i>
   <i type="logical" name="LORBITALREAL"> F  </i>
  </separator>
  <separator name="miscellaneous" >
   <i type="int" name="IDIOT">     3</i>
   <i type="int" name="PHON_NSTRUCT">    -1</i>
   <i type="logical" name="LMUSIC"> F  </i>
   <v name="POMASS">     12.01100000</v>
   <v name="DARWINR">      0.00000000</v>
   <v name="DARWINV">      1.00000000</v>
   <i type="logical" name="LCORR"> T  </i>
  </separator>
  <i type="logical" name="GGA_COMPAT"> T  </i>
  <i type="logical" name="LBERRY"> F  </i>
  <i type="int" name="ICORELEVEL">     0</i>
  <i type="logical" name="LDAU"> F  </i>
  <i type="int" name="I_CONSTRAINED_M">     0</i>
  <separator name="electronic exchange-correlation" >
   <i type="string" name="GGA">--</i>
   <i type="int" name="VOSKOWN">     0</i>
   <i type="logical" name="LHFCALC"> F  </i>
   <i type="string" name="PRECFOCK"></i>
   <i type="logical" name="LSYMGRAD"> F  </i>
   <i type="logical" name="LHFONE"> F  </i>
   <i type="logical" name="LRHFCALC"> F  </i>
   <i type="logical" name="LTHOMAS"> F  </i>
   <i type="logical" name="LMODELHF"> F  </i>
   <i type="logical" name="LFOCKACE"> F  </i>
   <i name="ENCUT4O">     -1.00000000</i>
   <i type="int" name="EXXOEP">     0</i>
   <i type="int" name="FOURORBIT">     0</i>
   <i name="AEXX">      0.00000000</i>
   <i name="HFALPHA">      0.00000000</i>
   <i name="MCALPHA">      0.00000000</i>
   <i name="ALDAX">      1.00000000</i>
   <i name="AGGAX">      1.00000000</i>
   <i name="ALDAC">      1.00000000</i>
   <i name="AGGAC">      1.00000000</i>
   <i type="int" name="NKREDX">     1</i>
   <i type="int" name="NKREDY">     1</i>
   <i type="int" name="NKREDZ">     1</i>
   <i type="logical" name="SHIFTRED"> F  </i>
   <i type="logical" name="ODDONLY"> F  </i>
   <i type="logical" name="EVENONLY"> F  </i>
   <i type="int" name="LMAXFOCK">     0</i>
   <i type="int" name="NMAXFOCKAE">     0</i>
   <i type="logical" name="LFOCKAEDFT"> F  </i>
   <i name="HFSCREEN">      0.00000000</i>
   <i name="HFSCREENC">      0.00000000</i>
   <i type="int" name="NBANDSGWLOW">     0</i>
  </separator>
  <separator name="vdW DFT" >
   <i type="logical" name="LUSE_VDW"> F  </i>
   <i type="int" name="IVDW_NL">     1</i>
   <i type="logical" name="LSPIN_VDW"> F  </i>
   <i name="Zab_VDW">     -0.84910000</i>
   <i name="PARAM1">      0.12340000</i>
   <i name="PARAM2">      1.00000000</i>
   <i name="PARAM3">      0.00000000</i>
  </separator>
  <separator name="model GW" >
   <i type="int" name="MODEL_GW">     0</i>
   <i name="MODEL_EPS0">     31.63027863</i>
   <i name="MODEL_ALPHA">      1.00000000</i>
  </separator>
  <separator name="linear response parameters" >
   <i type="logical" name="LEPSILON"> F  </i>
   <i type="logical" name="LRPA"> F  </i>
   <i type="logical" name="LNABLA"> F  </i>
   <i type="logical" name="LVEL"> F  </i>
   <i name="CSHIFT">      0.10000000</i>
   <i name="OMEGAMAX">     -1.00000000</i>
   <i name="DEG_THRESHOLD">      0.00200000</i>
   <i name="RTIME">     -0.10000000</i>
   <i name="WPLASMAI">      0.00000000</i>
   <v name="DFIELD">      0.00000000      0.00000000      0.00000000</v>
   <v name="WPLASMA">      0.00000000      0.00000000      0.00000000      0.00000000      0.00000000      0.00000000      0.00000000      0.00000000      0.00000000</v>
  </separator>
  <separator name="orbital magnetization" >
   <i type="logical" name="NUCIND"> F  </i>
   <v name="MAGPOS">      0.00000000      0.00000000      0.00000000</v>
   <i type="logical" name="LNICSALL"> T  </i>
   <i type="logical" name="ORBITALMAG"> F  </i>
   <i type="logical" name="LMAGBLOCH"> F  </i>
   <i type="logical" name="LCHIMAG"> F  </i>
   <i type="logical" name="LGAUGE"> T  </i>
   <i type="int" name="MAGATOM">     0</i>
   <v name="MAGDIPOL">      0.00000000      0.00000000      0.00000000</v>
   <v name="AVECCONST">      0.00000000      0.00000000      0.00000000</v>
  </separator>
  <separator name="response functions" >
   <i type="logical" name="LALL_IN_ONE"> F  </i>
   <i type="int" name="IALL_IN_ONE">    -1</i>
   <i type="int" name="NBANDS_WAVE">    -1</i>
   <i type="logical" name="LFINITE_TEMPERATURE"> F  </i>
   <i type="logical" name="LADDER"> F  </i>
   <i type="logical" name="LRPAFORCE"> F  </i>
   <i type="logical" name="LFXC"> F  </i>
   <i type="logical" name="LHARTREE"> T  </i>
   <i type="int" name="IBSE">     0</i>
   <v type="int" name="KPOINT">    -1     0     0     0</v>
   <i type="logical" name="LTCTC"> F  </i>
   <i type="logical" name="LTCTE"> F  </i>
   <i type="logical" name="LTETE"> F  </i>
   <i type="logical" name="LTRIPLET"> F  </i>
   <i type="logical" name="LFXCEPS"> F  </i>
   <i type="logical" name="LFXHEG"> F  </i>
   <i type="int" name="NATURALO">     2</i>
   <i type="logical" name="LHOLEGF"> F  </i>
   <i type="logical" name="L2ORDER"> F  </i>
   <i type="logical" name="LDMP1"> F  </i>
   <i type="logical" name="LMP2LT"> F  </i>
   <i type="logical" name="LSMP2LT"> F  </i>
   <i type="logical" name="LGWLF"> F  </i>
   <i name="ENCUTGW">     -1.60000002</i>
   <i name="ENCUTGWSOFT">     -1.60000002</i>
   <i name="ENCUTLF">     -1.00000000</i>
   <i type="logical" name="LESF_SPLINES"> F  </i>
   <i type="int" name="LMAXMP2">    -1</i>
   <i name="SCISSOR">      0.00000000</i>
   <i type="int" name="NOMEGA">     0</i>
   <i type="int" name="NOMEGAR">     0</i>
   <i type="int" name="NBANDSGW">    -1</i>
   <i type="int" name="NBANDSO">    -1</i>
   <i type="int" name="NBANDSV">    -1</i>
   <i type="int" name="NELMGW">     1</i>
   <i type="int" name="NELMHF">     1</i>
   <i type="int" name="DIM">     3</i>
   <i type="int" name="IESPILON">     4</i>
   <i type="int" name="ANTIRES">     0</i>
   <i name="OMEGAMAX">    -30.00000000</i>
   <i name="OMEGAMIN">    -30.00000000</i>
   <i name="OMEGATL">   -200.00000000</i>
   <i type="int" name="OMEGAGRID">     0</i>
   <i name="CSHIFT">     -0.10000000</i>
   <i type="logical" name="LSELFENERGY"> F  </i>
   <i type="logical" name="LSPECTRAL"> F  </i>
   <i type="logical" name="LSPECTRALGW"> F  </i>
   <i type="logical" name="LSINGLES"> F  </i>
   <i type="logical" name="LFERMIGW"> F  </i>
   <i type="logical" name="ODDONLYGW"> F  </i>
   <i type="logical" name="EVENONLYGW"> F  </i>
   <i type="int" name="NKREDLFX">     1</i>
   <i type="int" name="NKREDLFY">     1</i>
   <i type="int" name="NKREDLFZ">     1</i>
   <i type="int" name="MAXMEM">  2800</i>
   <i type="int" name="TELESCOPE">     0</i>
   <i type="int" name="NTAUPAR">    -1</i>
   <i type="int" name="NOMEGAPAR">    -1</i>
   <i name="DAMP_NEWTON">      0.80000001</i>
   <i name="LAMBDA">      1.00000000</i>
  </separator>
  <separator name="External order field" >
   <i name="OFIELD_KAPPA">      0.00000000</i>
   <v name="OFIELD_K">      0.00000000      0.00000000      0.00000000</v>
   <i name="OFIELD_Q6_NEAR">      0.00000000</i>
   <i name="OFIELD_Q6_FAR">      0.00000000</i>
   <i name="OFIELD_A">      0.00000000</i>
  </separator>
  <separator name="optional k-points parameters" >
   <i type="int" name="KPOINTS_OPT_MODE">     1</i>
   <i type="logical" name="LKPOINTS_OPT"> F  </i>
  </separator>
 </parameters>
 <atominfo>
  <atoms>      18 </atoms>
  <types>       1 </types>
  <array name="atoms" >
   <dimension dim="1">ion</dimension>
   <field type="string">element</field>
   <field type="int">atomtype</field>
   <set>
    <rc><c>C </c><c>   1</c></rc>
    <rc><c>C </c><c>   1</c></rc>
    <rc><c>C </c><c>   1</c></rc>
    <rc><c>C </c><c>   1</c></rc>
    <rc><c>C </c><c>   1</c></rc>
    <rc><c>C </c><c>   1</c></rc>
    <rc><c>C </c><c>   1</c></rc>
    <rc><c>C </c><c>   1</c></rc>
    <rc><c>C </c><c>   1</c></rc>
    <rc><c>C </c><c>   1</c></rc>
    <rc><c>C </c><c>   1</c></rc>
    <rc><c>C </c><c>   1</c></rc>
    <rc><c>C </c><c>   1</c></rc>
    <rc><c>C </c><c>   1</c></rc>
    <rc><c>C </c><c>   1</c></rc>
    <rc><c>C </c><c>   1</c></rc>
    <rc><c>C </c><c>   1</c></rc>
    <rc><c>C </c><c>   1</c></rc>
   </set>
  </array>
  <array name="atomtypes" >
   <dimension dim="1">type</dimension>
   <field type="int">atomspertype</field>
   <field type="string">element</field>
   <field>mass</field>
   <field>valence</field>
   <field type="string">pseudopotential</field>
   <set>
    <rc><c>  18</c><c>C </c><c>     12.01100000</c><c>      4.00000000</c><c>  PAW_PBE C 08Apr2002                   </c></rc>
   </set>
  </array>
 </atominfo>
 <structure name="initialpos" >
  <crystal>
   <varray name="basis" >
    <v>       7.40170591       0.00000000       0.00000000 </v>
    <v>      -3.70085295       6.41006527       0.00000000 </v>
    <v>       0.00000000       0.00000000      20.00000000 </v>
   </varray>
   <i name="volume">    948.90835877 </i>
   <varray name="rec_basis" >
    <v>       0.13510399       0.07800233       0.00000000 </v>
    <v>       0.00000000       0.15600465       0.00000000 </v>
    <v>       0.00000000       0.00000000       0.05000000 </v>
   </varray>
  </crystal>
  <varray name="positions" >
   <v>       0.00000000       0.00000000       0.50050000 </v>
   <v>       0.33333333       0.00000000       0.50050000 </v>
   <v>       0.66666667       0.00000000       0.50000000 </v>
   <v>       0.00000000       0.33333333       0.50000000 </v>
   <v>       0.33333333       0.33333333       0.50000000 </v>
   <v>       0.66666667       0.33333333       0.50000000 </v>
   <v>       0.00000000       0.66666667       0.50000000 </v>
   <v>       0.33333333       0.66666667       0.50000000 </v>
   <v>       0.66666667       0.66666667       0.50000000 </v>
   <v>       0.22222222       0.11111111       0.50000000 </v>
   <v>       0.55555556       0.11111111       0.50000000 </v>
   <v>       0.88888889       0.11111111       0.50000000 </v>
   <v>       0.22222222       0.44444444       0.50000000 </v>
   <v>       0.55555556       0.44444444       0.50000000 </v>
   <v>       0.88888889       0.44444444       0.50000000 </v>
   <v>       0.22222222       0.77777778       0.50000000 </v>
   <v>       0.55555556       0.77777778       0.50000000 </v>
   <v>       0.88888889       0.77777778       0.50000000 </v>
  </varray>
 </structure>
 <calculation>
  <scstep>
   <time name="dav">    3.81    3.96</time>
   <time name="total">    3.90    4.05</time>
   <energy>
    <i name="alphaZ">     28.04858418 </i>
    <i name="ewald">  11638.80630244 </i>
    <i name="hartreedc"> -13553.13614653 </i>
    <i name="XCdc">    237.17689281 </i>
    <i name="pawpsdc">   1953.39683484 </i>
    <i name="pawaedc">  -1963.64613940 </i>
    <i name="eentropy">     -0.01203299 </i>
    <i name="bandstr">   -254.89921147 </i>
    <i name="atom">   2648.70517965 </i>
    <i name="e_fr_energy">    734.44026353 </i>
    <i name="e_wo_entrp">    734.45229652 </i>
    <i name="e_0_energy">    734.44628002 </i>
   </energy>
  </scstep>
  <scstep>
   <time name="dav">    5.14    5.34</time>
   <time name="total">    5.14    5.34</time>
   <energy>
    <i name="e_fr_energy">    -25.07810549 </i>
    <i name="e_wo_entrp">    -25.07788102 </i>
    <i name="e_0_energy">    -25.07799326 </i>
   </energy>
  </scstep>
  <scstep>
   <time name="dav">    4.16    4.32</time>
   <time name="total">    4.16    4.32</time>
   <energy>
    <i name="e_fr_energy">   -172.42486645 </i>
    <i name="e_wo_entrp">   -172.42355911 </i>
    <i name="e_0_energy">   -172.42421278 </i>
   </energy>
  </scstep>
  <scstep>
   <time name="dav">    4.13    4.29</time>
   <time name="total">    4.13    4.29</time>
   <energy>
    <i name="e_fr_energy">   -177.35412935 </i>
    <i name="e_wo_entrp">   -177.35183538 </i>
    <i name="e_0_energy">   -177.35298237 </i>
   </energy>
  </scstep>
  <scstep>
   <time name="dav">    4.63    3.64</time>
   <time name="total">    4.81    3.82</time>
   <energy>
    <i name="e_fr_energy">   -177.48635052 </i>
    <i name="e_wo_entrp">   -177.48404771 </i>
    <i name="e_0_energy">   -177.48519911 </i>
   </energy>
  </scstep>
  <scstep>
   <time name="dav">    3.89    4.03</time>
   <time name="total">    4.15    4.31</time>
   <energy>
    <i name="e_fr_energy">   -169.32101017 </i>
    <i name="e_wo_entrp">   -169.31870736 </i>
    <i name="e_0_energy">   -169.31985876 </i>
   </energy>
  </scstep>
  <scstep>
   <time name="dav">    3.85    4.00</time>
   <time name="total">    4.11    4.26</time>
   <energy>
    <i name="e_fr_energy">   -166.15297247 </i>
    <i name="e_wo_entrp">   -166.15066965 </i>
    <i name="e_0_energy">   -166.15182106 </i>
   </energy>
  </scstep>
  <scstep>
   <time name="dav">    4.02    4.17</time>
   <time name="total">    4.27    4.44</time>
   <energy>
    <i name="e_fr_energy">   -166.08988139 </i>
    <i name="e_wo_entrp">   -166.08757859 </i>
    <i name="e_0_energy">   -166.08872999 </i>
   </energy>
  </scstep>
  <scstep>
   <time name="dav">    4.12    4.27</time>
   <time name="total">    4.38    4.55</time>
   <energy>
    <i name="e_fr_energy">   -166.07706894 </i>
    <i name="e_wo_entrp">   -166.07476612 </i>
    <i name="e_0_energy">   -166.07591753 </i>
   </energy>
  </scstep>
  <scstep>
   <time name="dav">    3.77    3.92</time>
   <time name="total">    4.03    4.18</time>
   <energy>
    <i name="e_fr_energy">   -166.05818953 </i>
    <i name="e_wo_entrp">   -166.05588672 </i>
    <i name="e_0_energy">   -166.05703813 </i>
   </energy>
  </scstep>
  <scstep>
   <time name="dav">    3.84    3.99</time>
   <time name="total">    4.11    4.26</time>
   <energy>
    <i name="e_fr_energy">   -166.06290726 </i>
    <i name="e_wo_entrp">   -166.06060446 </i>
    <i name="e_0_energy">   -166.06175586 </i>
   </energy>
  </scstep>
  <scstep>
   <time name="dav">    3.61    2.55</time>
   <time name="total">    3.88    2.83</time>
   <energy>
    <i name="e_fr_energy">   -166.06730129 </i>
    <i name="e_wo_entrp">   -166.06499848 </i>
    <i name="e_0_energy">   -166.06614988 </i>
   </energy>
  </scstep>
  <scstep>
   <time name="dav">    3.85    4.00</time>
   <time name="total">    4.13    4.28</time>
   <energy>
    <i name="e_fr_energy">   -166.07266334 </i>
    <i name="e_wo_entrp">   -166.07036053 </i>
    <i name="e_0_energy">   -166.07151194 </i>
   </energy>
  </scstep>
  <scstep>
   <time name="dav">    3.69    3.83</time>
   <time name="total">    3.96    4.11</time>
   <energy>
    <i name="e_fr_energy">   -166.07535190 </i>
    <i name="e_wo_entrp">   -166.07304909 </i>
    <i name="e_0_energy">   -166.07420050 </i>
   </energy>
  </scstep>
  <scstep>
   <time name="dav">    4.10    4.26</time>
   <time name="total">    4.36    4.53</time>
   <energy>
    <i name="e_fr_energy">   -166.07604842 </i>
    <i name="e_wo_entrp">   -166.07374561 </i>
    <i name="e_0_energy">   -166.07489701 </i>
   </energy>
  </scstep>
  <scstep>
   <time name="dav">    3.71    3.85</time>
   <time name="total">    3.97    4.13</time>
   <energy>
    <i name="e_fr_energy">   -166.07626399 </i>
    <i name="e_wo_entrp">   -166.07396118 </i>
    <i name="e_0_energy">   -166.07511258 </i>
   </energy>
  </scstep>
  <scstep>
   <time name="dav">    3.57    3.71</time>
   <time name="total">    3.84    3.99</time>
   <energy>
    <i name="e_fr_energy">   -166.07633382 </i>
    <i name="e_wo_entrp">   -166.07403101 </i>
    <i name="e_0_energy">   -166.07518241 </i>
   </energy>
  </scstep>
  <scstep>
   <time name="dav">    3.22    3.35</time>
   <time name="total">    3.48    3.62</time>
   <energy>
    <i name="e_fr_energy">   -166.07638116 </i>
    <i name="e_wo_entrp">   -166.07407835 </i>
    <i name="e_0_energy">   -166.07522976 </i>
   </energy>
  </scstep>
  <scstep>
   <time name="dav">    3.44    3.57</time>
   <time name="total">    3.71    3.85</time>
   <energy>
    <i name="e_fr_energy">   -166.07640940 </i>
    <i name="e_wo_entrp">   -166.07410659 </i>
    <i name="e_0_energy">   -166.07525800 </i>
   </energy>
  </scstep>
  <scstep>
   <time name="dav">    2.99    1.89</time>
   <time name="total">    3.25    2.16</time>
   <energy>
    <i name="e_fr_energy">   -166.07642644 </i>
    <i name="e_wo_entrp">   -166.07412363 </i>
    <i name="e_0_energy">   -166.07527504 </i>
   </energy>
  </scstep>
  <scstep>
   <time name="dav">    2.59    2.68</time>
   <time name="total">    2.85    2.95</time>
   <energy>
    <i name="e_fr_energy">   -166.07642996 </i>
    <i name="e_wo_entrp">   -166.07412715 </i>
    <i name="e_0_energy">   -166.07527855 </i>
   </energy>
  </scstep>
  <scstep>
   <time name="dav">    2.58    2.67</time>
   <time name="total">    2.67    2.76</time>
   <energy>
    <i name="alphaZ">     28.04858418 </i>
    <i name="ewald">  11638.80630244 </i>
    <i name="hartreedc"> -13861.46401206 </i>
    <i name="XCdc">    247.81307654 </i>
    <i name="pawpsdc">   7452.59959460 </i>
    <i name="pawaedc">  -7464.86281983 </i>
    <i name="eentropy">     -0.00230281 </i>
    <i name="bandstr">   -855.72003338 </i>
    <i name="atom">   2648.70517965 </i>
    <i name="e_fr_energy">   -166.07643066 </i>
    <i name="e_wo_entrp">   -166.07412785 </i>
    <i name="e_0_energy">   -166.07527925 </i>
   </energy>
  </scstep>
  <structure>
   <crystal>
    <varray name="basis" >
     <v>       7.40170591       0.00000000       0.00000000 </v>
     <v>      -3.70085295       6.41006527       0.00000000 </v>
     <v>       0.00000000       0.00000000      20.00000000 </v>
    </varray>
    <i name="volume">    948.90835877 </i>
    <varray name="rec_basis" >
     <v>       0.13510399       0.07800233       0.00000000 </v>
     <v>       0.00000000       0.15600465       0.00000000 </v>
     <v>       0.00000000       0.00000000       0.05000000 </v>
    </varray>
   </crystal>
   <varray name="positions" >
    <v>       0.00000000       0.00000000       0.50050000 </v>
    <v>       0.33333333       0.00000000       0.50050000 </v>
    <v>       0.66666667       0.00000000       0.50000000 </v>
    <v>       0.00000000       0.33333333       0.50000000 </v>
    <v>       0.33333333       0.33333333       0.50000000 </v>
    <v>       0.66666667       0.33333333       0.50000000 </v>
    <v>       0.00000000       0.66666667       0.50000000 </v>
    <v>       0.33333333       0.66666667       0.50000000 </v>
    <v>       0.66666667       0.66666667       0.50000000 </v>
    <v>       0.22222222       0.11111111       0.50000000 </v>
    <v>       0.55555556       0.11111111       0.50000000 </v>
    <v>       0.88888889       0.11111111       0.50000000 </v>
    <v>       0.22222222       0.44444444       0.50000000 </v>
    <v>       0.55555556       0.44444444       0.50000000 </v>
    <v>       0.88888889       0.44444444       0.50000000 </v>
    <v>       0.22222222       0.77777778       0.50000000 </v>
    <v>       0.55555556       0.77777778       0.50000000 </v>
    <v>       0.88888889       0.77777778       0.50000000 </v>
   </varray>
  </structure>
  <varray name="forces" >
   <v>      -0.00026684       0.00012285      -0.14874768 </v>
   <v>       0.00026684       0.00012285      -0.14874768 </v>
   <v>      -0.00000000       0.00005766      -0.00957107 </v>
   <v>      -0.00003378      -0.00000653      -0.00260232 </v>
   <v>      -0.00000000      -0.00001441      -0.00957051 </v>
   <v>       0.00003378      -0.00000653      -0.00260232 </v>
   <v>      -0.00000000      -0.00006232      -0.00957166 </v>
   <v>      -0.00002343      -0.00001835      -0.00260273 </v>
   <v>       0.00002343      -0.00001835      -0.00260273 </v>
   <v>      -0.00000000      -0.00063591       0.12347970 </v>
   <v>      -0.00056807      -0.00036887       0.05268714 </v>
   <v>       0.00056807      -0.00036887       0.05268714 </v>
   <v>      -0.00001485       0.00000188      -0.00563723 </v>
   <v>       0.00001485       0.00000188      -0.00563723 </v>
   <v>      -0.00000000       0.00000892      -0.01810845 </v>
   <v>       0.00002413       0.00059762       0.06515690 </v>
   <v>      -0.00000000      -0.00001113       0.00683382 </v>
   <v>      -0.00002413       0.00059762       0.06515690 </v>
  </varray>
  <varray name="stress" >
   <v>      -0.16930595      -0.00000000       0.00000000 </v>
   <v>      -0.00000000      -0.17032252       0.00000435 </v>
   <v>       0.00000000       0.00000434      -0.57473005 </v>
  </varray>
  <energy>
   <i name="e_fr_energy">   -166.07643066 </i>
   <i name="e_wo_entrp">   -166.07412785 </i>
   <i name="e_0_energy">   -166.07527925 </i>
  </energy>
  <time name="totalsc">   90.70   90.57</time>
  <eigenvalues>
   <array>
    <dimension dim="1">band</dimension>
    <dimension dim="2">kpoint</dimension>
    <dimension dim="3">spin</dimension>
    <field>eigene</field>
    <field>occ</field>
    <set>
     <set comment="spin 1">
      <set comment="kpoint 1">
       <r>  -22.2558    1.0000 </r>
       <r>  -19.6733    1.0000 </r>
       <r>  -19.6733    1.0000 </r>
       <r>  -19.6733    1.0000 </r>
       <r>  -19.6733    1.0000 </r>
       <r>  -19.6732    1.0000 </r>
       <r>  -19.6732    1.0000 </r>
       <r>  -15.3407    1.0000 </r>
       <r>  -15.3407    1.0000 </r>
       <r>  -15.3407    1.0000 </r>
       <r>  -15.3406    1.0000 </r>
       <r>  -13.2895    1.0000 </r>
       <r>  -13.2895    1.0000 </r>
       <r>  -12.3747    1.0000 </r>
       <r>  -12.3747    1.0000 </r>
       <r>  -12.3746    1.0000 </r>
       <r>  -12.3746    1.0000 </r>
       <r>  -12.3745    1.0000 </r>
       <r>  -12.3745    1.0000 </r>
       <r>  -10.3598    1.0000 </r>
       <r>   -8.5236    1.0000 </r>
       <r>   -8.5236    1.0000 </r>
       <r>   -8.5236    1.0000 </r>
       <r>   -8.5236    1.0000 </r>
       <r>   -8.5234    1.0000 </r>
       <r>   -8.5233    1.0000 </r>
       <r>   -7.3709    1.0000 </r>
       <r>   -7.3709    1.0000 </r>
       <r>   -7.3708    1.0000 </r>
       <r>   -7.3708    1.0000 </r>
       <r>   -7.3707    1.0000 </r>
       <r>   -7.3707    1.0000 </r>
       <r>   -5.7845    1.0000 </r>
       <r>   -5.7844    1.0000 </r>
       <r>   -2.7554    0.5010 </r>
       <r>   -2.7553    0.5003 </r>
       <r>   -2.7553    0.4996 </r>
       <r>   -2.7552    0.4991 </r>
       <r>    0.5193    0.0000 </r>
       <r>    1.3117    0.0000 </r>
       <r>    1.6340    0.0000 </r>
       <r>    2.1431    0.0000 </r>
       <r>    2.1440    0.0000 </r>
       <r>    2.1441    0.0000 </r>
       <r>    2.1442    0.0000 </r>
       <r>    2.1442    0.0000 </r>
      </set>
      <set comment="kpoint 2">
       <r>  -22.2022    1.0000 </r>
       <r>  -20.3488    1.0000 </r>
       <r>  -19.9841    1.0000 </r>
       <r>  -19.9841    1.0000 </r>
       <r>  -19.2624    1.0000 </r>
       <r>  -19.2624    1.0000 </r>
       <r>  -18.9061    1.0000 </r>
       <r>  -15.9952    1.0000 </r>
       <r>  -15.9952    1.0000 </r>
       <r>  -14.9132    1.0000 </r>
       <r>  -14.9132    1.0000 </r>
       <r>  -13.5975    1.0000 </r>
       <r>  -12.9701    1.0000 </r>
       <r>  -12.9701    1.0000 </r>
       <r>  -12.9562    1.0000 </r>
       <r>  -12.9562    1.0000 </r>
       <r>  -11.7351    1.0000 </r>
       <r>  -11.7350    1.0000 </r>
       <r>  -11.1176    1.0000 </r>
       <r>  -10.2958    1.0000 </r>
       <r>   -8.8634    1.0000 </r>
       <r>   -8.8633    1.0000 </r>
       <r>   -8.8291    1.0000 </r>
       <r>   -8.5097    1.0000 </r>
       <r>   -8.5095    1.0000 </r>
       <r>   -8.1320    1.0000 </r>
       <r>   -8.1267    1.0000 </r>
       <r>   -7.7134    1.0000 </r>
       <r>   -7.7132    1.0000 </r>
       <r>   -6.9228    1.0000 </r>
       <r>   -6.9227    1.0000 </r>
       <r>   -6.5570    1.0000 </r>
       <r>   -6.0046    1.0000 </r>
       <r>   -5.9001    1.0000 </r>
       <r>   -3.5267    1.0000 </r>
       <r>   -3.5266    1.0000 </r>
       <r>   -2.0047    0.0000 </r>
       <r>   -2.0047    0.0000 </r>
       <r>    0.5919    0.0000 </r>
       <r>    0.8748    0.0000 </r>
       <r>    1.3853    0.0000 </r>
       <r>    1.4735    0.0000 </r>
       <r>    1.4736    0.0000 </r>
       <r>    1.7085    0.0000 </r>
       <r>    2.6301    0.0000 </r>
       <r>    2.7603    0.0000 </r>
      </set>
      <set comment="kpoint 3">
       <r>  -22.2022    1.0000 </r>
       <r>  -20.3488    1.0000 </r>
       <r>  -19.9841    1.0000 </r>
       <r>  -19.9841    1.0000 </r>
       <r>  -19.2624    1.0000 </r>
       <r>  -19.2624    1.0000 </r>
       <r>  -18.9061    1.0000 </r>
       <r>  -15.9952    1.0000 </r>
       <r>  -15.9952    1.0000 </r>
       <r>  -14.9132    1.0000 </r>
       <r>  -14.9132    1.0000 </r>
       <r>  -13.5975    1.0000 </r>
       <r>  -12.9701    1.0000 </r>
       <r>  -12.9701    1.0000 </r>
       <r>  -12.9562    1.0000 </r>
       <r>  -12.9562    1.0000 </r>
       <r>  -11.7351    1.0000 </r>
       <r>  -11.7351    1.0000 </r>
       <r>  -11.1177    1.0000 </r>
       <r>  -10.2958    1.0000 </r>
       <r>   -8.8635    1.0000 </r>
       <r>   -8.8633    1.0000 </r>
       <r>   -8.8291    1.0000 </r>
       <r>   -8.5097    1.0000 </r>
       <r>   -8.5095    1.0000 </r>
       <r>   -8.1318    1.0000 </r>
       <r>   -8.1269    1.0000 </r>
       <r>   -7.7133    1.0000 </r>
       <r>   -7.7132    1.0000 </r>
       <r>   -6.9227    1.0000 </r>
       <r>   -6.9227    1.0000 </r>
       <r>   -6.5571    1.0000 </r>
       <r>   -6.0045    1.0000 </r>
       <r>   -5.9002    1.0000 </r>
       <r>   -3.5267    1.0000 </r>
       <r>   -3.5266    1.0000 </r>
       <r>   -2.0047    0.0000 </r>
       <r>   -2.0047    0.0000 </r>
       <r>    0.5917    0.0000 </r>
       <r>    0.8750    0.0000 </r>
       <r>    1.3853    0.0000 </r>
       <r>    1.4734    0.0000 </r>
       <r>    1.4736    0.0000 </r>
       <r>    1.7085    0.0000 </r>
       <r>    2.6301    0.0000 </r>
       <r>    2.7607    0.0000 </r>
      </set>
      <set comment="kpoint 4">
       <r>  -22.0417    1.0000 </r>
       <r>  -20.9265    1.0000 </r>
       <r>  -20.1926    1.0000 </r>
       <r>  -20.1926    1.0000 </r>
       <r>  -18.7553    1.0000 </r>
       <r>  -18.7552    1.0000 </r>
       <r>  -18.0629    1.0000 </r>
       <r>  -16.7451    1.0000 </r>
       <r>  -16.7451    1.0000 </r>
       <r>  -14.7530    1.0000 </r>
       <r>  -14.6244    1.0000 </r>
       <r>  -14.6243    1.0000 </r>
       <r>  -13.4994    1.0000 </r>
       <r>  -13.4993    1.0000 </r>
       <r>  -12.1837    1.0000 </r>
       <r>  -12.1837    1.0000 </r>
       <r>  -11.0980    1.0000 </r>
       <r>  -11.0979    1.0000 </r>
       <r>  -10.1046    1.0000 </r>
       <r>   -9.8600    1.0000 </r>
       <r>   -9.4951    1.0000 </r>
       <r>   -9.4950    1.0000 </r>
       <r>   -9.0380    1.0000 </r>
       <r>   -8.7935    1.0000 </r>
       <r>   -8.7611    1.0000 </r>
       <r>   -8.7591    1.0000 </r>
       <r>   -7.9450    1.0000 </r>
       <r>   -7.9446    1.0000 </r>
       <r>   -7.6710    1.0000 </r>
       <r>   -6.6226    1.0000 </r>
       <r>   -6.3779    1.0000 </r>
       <r>   -6.3773    1.0000 </r>
       <r>   -6.2164    1.0000 </r>
       <r>   -5.7648    1.0000 </r>
       <r>   -4.2990    1.0000 </r>
       <r>   -4.2989    1.0000 </r>
       <r>   -1.2829    0.0000 </r>
       <r>   -1.2828    0.0000 </r>
       <r>   -0.2381    0.0000 </r>
       <r>    0.7830    0.0000 </r>
       <r>    0.7876    0.0000 </r>
       <r>    0.8145    0.0000 </r>
       <r>    1.6061    0.0000 </r>
       <r>    1.9319    0.0000 </r>
       <r>    2.3339    0.0000 </r>
       <r>    2.8514    0.0000 </r>
      </set>
      <set comment="kpoint 5">
       <r>  -22.0417    1.0000 </r>
       <r>  -20.9265    1.0000 </r>
       <r>  -20.1926    1.0000 </r>
       <r>  -20.1926    1.0000 </r>
       <r>  -18.7553    1.0000 </r>
       <r>  -18.7552    1.0000 </r>
       <r>  -18.0629    1.0000 </r>
       <r>  -16.7451    1.0000 </r>
       <r>  -16.7451    1.0000 </r>
       <r>  -14.7530    1.0000 </r>
       <r>  -14.6244    1.0000 </r>
       <r>  -14.6243    1.0000 </r>
       <r>  -13.4993    1.0000 </r>
       <r>  -13.4993    1.0000 </r>
       <r>  -12.1838    1.0000 </r>
       <r>  -12.1837    1.0000 </r>
       <r>  -11.0979    1.0000 </r>
       <r>  -11.0979    1.0000 </r>
       <r>  -10.1047    1.0000 </r>
       <r>   -9.8599    1.0000 </r>
       <r>   -9.4951    1.0000 </r>
       <r>   -9.4950    1.0000 </r>
       <r>   -9.0380    1.0000 </r>
       <r>   -8.7924    1.0000 </r>
       <r>   -8.7611    1.0000 </r>
       <r>   -8.7604    1.0000 </r>
       <r>   -7.9447    1.0000 </r>
       <r>   -7.9446    1.0000 </r>
       <r>   -7.6712    1.0000 </r>
       <r>   -6.6226    1.0000 </r>
       <r>   -6.3776    1.0000 </r>
       <r>   -6.3774    1.0000 </r>
       <r>   -6.2167    1.0000 </r>
       <r>   -5.7648    1.0000 </r>
       <r>   -4.2990    1.0000 </r>
       <r>   -4.2989    1.0000 </r>
       <r>   -1.2829    0.0000 </r>
       <r>   -1.2828    0.0000 </r>
       <r>   -0.2382    0.0000 </r>
       <r>    0.7857    0.0000 </r>
       <r>    0.7875    0.0000 </r>
       <r>    0.8121    0.0000 </r>
       <r>    1.6061    0.0000 </r>
       <r>    1.9319    0.0000 </r>
       <r>    2.3339    0.0000 </r>
       <r>    2.8514    0.0000 </r>
      </set>
      <set comment="kpoint 6">
       <r>  -21.7748    1.0000 </r>
       <r>  -21.4026    1.0000 </r>
       <r>  -20.2972    1.0000 </r>
       <r>  -20.2972    1.0000 </r>
       <r>  -18.1581    1.0000 </r>
       <r>  -18.1580    1.0000 </r>
       <r>  -17.4813    1.0000 </r>
       <r>  -17.4813    1.0000 </r>
       <r>  -17.2288    1.0000 </r>
       <r>  -15.7456    1.0000 </r>
       <r>  -14.3221    1.0000 </r>
       <r>  -14.3221    1.0000 </r>
       <r>  -13.9510    1.0000 </r>
       <r>  -13.9510    1.0000 </r>
       <r>  -11.2585    1.0000 </r>
       <r>  -11.2585    1.0000 </r>
       <r>  -10.5972    1.0000 </r>
       <r>  -10.5971    1.0000 </r>
       <r>  -10.3278    1.0000 </r>
       <r>  -10.3277    1.0000 </r>
       <r>   -9.7876    1.0000 </r>
       <r>   -9.3484    1.0000 </r>
       <r>   -9.1439    1.0000 </r>
       <r>   -9.0903    1.0000 </r>
       <r>   -9.0900    1.0000 </r>
       <r>   -8.6462    1.0000 </r>
       <r>   -8.0612    1.0000 </r>
       <r>   -8.0610    1.0000 </r>
       <r>   -7.5384    1.0000 </r>
       <r>   -7.1687    1.0000 </r>
       <r>   -6.6645    1.0000 </r>
       <r>   -5.7469    1.0000 </r>
       <r>   -5.7469    1.0000 </r>
       <r>   -5.1980    1.0000 </r>
       <r>   -5.0472    1.0000 </r>
       <r>   -5.0472    1.0000 </r>
       <r>   -0.9701    0.0000 </r>
       <r>   -0.5850    0.0000 </r>
       <r>   -0.5848    0.0000 </r>
       <r>    0.1015    0.0000 </r>
       <r>    0.1017    0.0000 </r>
       <r>    1.1734    0.0000 </r>
       <r>    1.6816    0.0000 </r>
       <r>    1.9735    0.0000 </r>
       <r>    2.3043    0.0000 </r>
       <r>    2.4864    0.0000 </r>
      </set>
      <set comment="kpoint 7">
       <r>  -21.7748    1.0000 </r>
       <r>  -21.4026    1.0000 </r>
       <r>  -20.2972    1.0000 </r>
       <r>  -20.2972    1.0000 </r>
       <r>  -18.1581    1.0000 </r>
       <r>  -18.1580    1.0000 </r>
       <r>  -17.4813    1.0000 </r>
       <r>  -17.4813    1.0000 </r>
       <r>  -17.2288    1.0000 </r>
       <r>  -15.7456    1.0000 </r>
       <r>  -14.3221    1.0000 </r>
       <r>  -14.3221    1.0000 </r>
       <r>  -13.9510    1.0000 </r>
       <r>  -13.9510    1.0000 </r>
       <r>  -11.2586    1.0000 </r>
       <r>  -11.2585    1.0000 </r>
       <r>  -10.5972    1.0000 </r>
       <r>  -10.5972    1.0000 </r>
       <r>  -10.3278    1.0000 </r>
       <r>  -10.3277    1.0000 </r>
       <r>   -9.7877    1.0000 </r>
       <r>   -9.3483    1.0000 </r>
       <r>   -9.1438    1.0000 </r>
       <r>   -9.0903    1.0000 </r>
       <r>   -9.0903    1.0000 </r>
       <r>   -8.6461    1.0000 </r>
       <r>   -8.0611    1.0000 </r>
       <r>   -8.0610    1.0000 </r>
       <r>   -7.5384    1.0000 </r>
       <r>   -7.1687    1.0000 </r>
       <r>   -6.6644    1.0000 </r>
       <r>   -5.7470    1.0000 </r>
       <r>   -5.7469    1.0000 </r>
       <r>   -5.1980    1.0000 </r>
       <r>   -5.0472    1.0000 </r>
       <r>   -5.0472    1.0000 </r>
       <r>   -0.9702    0.0000 </r>
       <r>   -0.5849    0.0000 </r>
       <r>   -0.5849    0.0000 </r>
       <r>    0.1016    0.0000 </r>
       <r>    0.1017    0.0000 </r>
       <r>    1.1734    0.0000 </r>
       <r>    1.6816    0.0000 </r>
       <r>    1.9735    0.0000 </r>
       <r>    2.3043    0.0000 </r>
       <r>    2.4865    0.0000 </r>
      </set>
      <set comment="kpoint 8">
       <r>  -22.0952    1.0000 </r>
       <r>  -20.6109    1.0000 </r>
       <r>  -20.6108    1.0000 </r>
       <r>  -19.5193    1.0000 </r>
       <r>  -19.5193    1.0000 </r>
       <r>  -18.4549    1.0000 </r>
       <r>  -18.4548    1.0000 </r>
       <r>  -16.7786    1.0000 </r>
       <r>  -16.1617    1.0000 </r>
       <r>  -15.2403    1.0000 </r>
       <r>  -14.2549    1.0000 </r>
       <r>  -14.1585    1.0000 </r>
       <r>  -14.1585    1.0000 </r>
       <r>  -12.6046    1.0000 </r>
       <r>  -12.3071    1.0000 </r>
       <r>  -12.3070    1.0000 </r>
       <r>  -12.2711    1.0000 </r>
       <r>  -10.4865    1.0000 </r>
       <r>  -10.4863    1.0000 </r>
       <r>  -10.1681    1.0000 </r>
       <r>   -9.1765    1.0000 </r>
       <r>   -9.1764    1.0000 </r>
       <r>   -9.1236    1.0000 </r>
       <r>   -9.1235    1.0000 </r>
       <r>   -8.4260    1.0000 </r>
       <r>   -8.4259    1.0000 </r>
       <r>   -8.0747    1.0000 </r>
       <r>   -8.0746    1.0000 </r>
       <r>   -7.1908    1.0000 </r>
       <r>   -7.1907    1.0000 </r>
       <r>   -6.4087    1.0000 </r>
       <r>   -6.1327    1.0000 </r>
       <r>   -6.1042    1.0000 </r>
       <r>   -6.1033    1.0000 </r>
       <r>   -4.2578    1.0000 </r>
       <r>   -3.8994    1.0000 </r>
       <r>   -1.7105    0.0000 </r>
       <r>   -1.2653    0.0000 </r>
       <r>    0.2725    0.0000 </r>
       <r>    0.2729    0.0000 </r>
       <r>    0.7376    0.0000 </r>
       <r>    1.5325    0.0000 </r>
       <r>    1.8574    0.0000 </r>
       <r>    2.0112    0.0000 </r>
       <r>    2.0116    0.0000 </r>
       <r>    2.7777    0.0000 </r>
      </set>
      <set comment="kpoint 9">
       <r>  -22.0952    1.0000 </r>
       <r>  -20.6109    1.0000 </r>
       <r>  -20.6108    1.0000 </r>
       <r>  -19.5193    1.0000 </r>
       <r>  -19.5193    1.0000 </r>
       <r>  -18.4549    1.0000 </r>
       <r>  -18.4548    1.0000 </r>
       <r>  -16.7786    1.0000 </r>
       <r>  -16.1617    1.0000 </r>
       <r>  -15.2403    1.0000 </r>
       <r>  -14.2549    1.0000 </r>
       <r>  -14.1586    1.0000 </r>
       <r>  -14.1585    1.0000 </r>
       <r>  -12.6046    1.0000 </r>
       <r>  -12.3072    1.0000 </r>
       <r>  -12.3070    1.0000 </r>
       <r>  -12.2711    1.0000 </r>
       <r>  -10.4864    1.0000 </r>
       <r>  -10.4863    1.0000 </r>
       <r>  -10.1682    1.0000 </r>
       <r>   -9.1765    1.0000 </r>
       <r>   -9.1763    1.0000 </r>
       <r>   -9.1237    1.0000 </r>
       <r>   -9.1235    1.0000 </r>
       <r>   -8.4261    1.0000 </r>
       <r>   -8.4260    1.0000 </r>
       <r>   -8.0745    1.0000 </r>
       <r>   -8.0744    1.0000 </r>
       <r>   -7.1909    1.0000 </r>
       <r>   -7.1908    1.0000 </r>
       <r>   -6.4085    1.0000 </r>
       <r>   -6.1320    1.0000 </r>
       <r>   -6.1042    1.0000 </r>
       <r>   -6.1040    1.0000 </r>
       <r>   -4.2578    1.0000 </r>
       <r>   -3.8994    1.0000 </r>
       <r>   -1.7106    0.0000 </r>
       <r>   -1.2652    0.0000 </r>
       <r>    0.2726    0.0000 </r>
       <r>    0.2730    0.0000 </r>
       <r>    0.7374    0.0000 </r>
       <r>    1.5325    0.0000 </r>
       <r>    1.8573    0.0000 </r>
       <r>    2.0112    0.0000 </r>
       <r>    2.0117    0.0000 </r>
       <r>    2.7777    0.0000 </r>
      </set>
      <set comment="kpoint 10">
       <r>  -21.8815    1.0000 </r>
       <r>  -21.1378    1.0000 </r>
       <r>  -20.7687    1.0000 </r>
       <r>  -19.6743    1.0000 </r>
       <r>  -18.9580    1.0000 </r>
       <r>  -17.9165    1.0000 </r>
       <r>  -17.5935    1.0000 </r>
       <r>  -17.5729    1.0000 </r>
       <r>  -16.6711    1.0000 </r>
       <r>  -15.2537    1.0000 </r>
       <r>  -15.2500    1.0000 </r>
       <r>  -14.6349    1.0000 </r>
       <r>  -13.7272    1.0000 </r>
       <r>  -12.8210    1.0000 </r>
       <r>  -11.8986    1.0000 </r>
       <r>  -11.6826    1.0000 </r>
       <r>  -11.3888    1.0000 </r>
       <r>  -10.0394    1.0000 </r>
       <r>   -9.9217    1.0000 </r>
       <r>   -9.9089    1.0000 </r>
       <r>   -9.7107    1.0000 </r>
       <r>   -9.6302    1.0000 </r>
       <r>   -9.2825    1.0000 </r>
       <r>   -9.2645    1.0000 </r>
       <r>   -9.0373    1.0000 </r>
       <r>   -8.6067    1.0000 </r>
       <r>   -8.2587    1.0000 </r>
       <r>   -7.5792    1.0000 </r>
       <r>   -7.3538    1.0000 </r>
       <r>   -7.1428    1.0000 </r>
       <r>   -6.5684    1.0000 </r>
       <r>   -6.5460    1.0000 </r>
       <r>   -5.5814    1.0000 </r>
       <r>   -5.3855    1.0000 </r>
       <r>   -5.0742    1.0000 </r>
       <r>   -4.4328    1.0000 </r>
       <r>   -1.2967    0.0000 </r>
       <r>   -0.6853    0.0000 </r>
       <r>   -0.4250    0.0000 </r>
       <r>   -0.2986    0.0000 </r>
       <r>    1.0280    0.0000 </r>
       <r>    1.2241    0.0000 </r>
       <r>    1.8266    0.0000 </r>
       <r>    2.0443    0.0000 </r>
       <r>    2.1553    0.0000 </r>
       <r>    2.4026    0.0000 </r>
      </set>
      <set comment="kpoint 11">
       <r>  -21.8815    1.0000 </r>
       <r>  -21.1378    1.0000 </r>
       <r>  -20.7687    1.0000 </r>
       <r>  -19.6743    1.0000 </r>
       <r>  -18.9580    1.0000 </r>
       <r>  -17.9165    1.0000 </r>
       <r>  -17.5935    1.0000 </r>
       <r>  -17.5729    1.0000 </r>
       <r>  -16.6711    1.0000 </r>
       <r>  -15.2537    1.0000 </r>
       <r>  -15.2500    1.0000 </r>
       <r>  -14.6348    1.0000 </r>
       <r>  -13.7272    1.0000 </r>
       <r>  -12.8210    1.0000 </r>
       <r>  -11.8986    1.0000 </r>
       <r>  -11.6826    1.0000 </r>
       <r>  -11.3888    1.0000 </r>
       <r>  -10.0394    1.0000 </r>
       <r>   -9.9187    1.0000 </r>
       <r>   -9.9120    1.0000 </r>
       <r>   -9.7107    1.0000 </r>
       <r>   -9.6302    1.0000 </r>
       <r>   -9.2824    1.0000 </r>
       <r>   -9.2644    1.0000 </r>
       <r>   -9.0374    1.0000 </r>
       <r>   -8.6066    1.0000 </r>
       <r>   -8.2588    1.0000 </r>
       <r>   -7.5789    1.0000 </r>
       <r>   -7.3540    1.0000 </r>
       <r>   -7.1428    1.0000 </r>
       <r>   -6.5684    1.0000 </r>
       <r>   -6.5459    1.0000 </r>
       <r>   -5.5814    1.0000 </r>
       <r>   -5.3854    1.0000 </r>
       <r>   -5.0742    1.0000 </r>
       <r>   -4.4328    1.0000 </r>
       <r>   -1.2967    0.0000 </r>
       <r>   -0.6854    0.0000 </r>
       <r>   -0.4250    0.0000 </r>
       <r>   -0.2985    0.0000 </r>
       <r>    1.0280    0.0000 </r>
       <r>    1.2241    0.0000 </r>
       <r>    1.8266    0.0000 </r>
       <r>    2.0445    0.0000 </r>
       <r>    2.1553    0.0000 </r>
       <r>    2.4024    0.0000 </r>
      </set>
      <set comment="kpoint 12">
       <r>  -21.8815    1.0000 </r>
       <r>  -21.1378    1.0000 </r>
       <r>  -20.7687    1.0000 </r>
       <r>  -19.6743    1.0000 </r>
       <r>  -18.9580    1.0000 </r>
       <r>  -17.9165    1.0000 </r>
       <r>  -17.5935    1.0000 </r>
       <r>  -17.5729    1.0000 </r>
       <r>  -16.6711    1.0000 </r>
       <r>  -15.2537    1.0000 </r>
       <r>  -15.2500    1.0000 </r>
       <r>  -14.6348    1.0000 </r>
       <r>  -13.7272    1.0000 </r>
       <r>  -12.8210    1.0000 </r>
       <r>  -11.8986    1.0000 </r>
       <r>  -11.6826    1.0000 </r>
       <r>  -11.3888    1.0000 </r>
       <r>  -10.0394    1.0000 </r>
       <r>   -9.9187    1.0000 </r>
       <r>   -9.9119    1.0000 </r>
       <r>   -9.7107    1.0000 </r>
       <r>   -9.6301    1.0000 </r>
       <r>   -9.2825    1.0000 </r>
       <r>   -9.2645    1.0000 </r>
       <r>   -9.0374    1.0000 </r>
       <r>   -8.6067    1.0000 </r>
       <r>   -8.2587    1.0000 </r>
       <r>   -7.5789    1.0000 </r>
       <r>   -7.3541    1.0000 </r>
       <r>   -7.1428    1.0000 </r>
       <r>   -6.5708    1.0000 </r>
       <r>   -6.5434    1.0000 </r>
       <r>   -5.5814    1.0000 </r>
       <r>   -5.3855    1.0000 </r>
       <r>   -5.0742    1.0000 </r>
       <r>   -4.4328    1.0000 </r>
       <r>   -1.2967    0.0000 </r>
       <r>   -0.6853    0.0000 </r>
       <r>   -0.4250    0.0000 </r>
       <r>   -0.2985    0.0000 </r>
       <r>    1.0276    0.0000 </r>
       <r>    1.2245    0.0000 </r>
       <r>    1.8266    0.0000 </r>
       <r>    2.0445    0.0000 </r>
       <r>    2.1553    0.0000 </r>
       <r>    2.4025    0.0000 </r>
      </set>
      <set comment="kpoint 13">
       <r>  -21.5619    1.0000 </r>
       <r>  -21.5619    1.0000 </r>
       <r>  -20.8213    1.0000 </r>
       <r>  -19.7261    1.0000 </r>
       <r>  -18.3060    1.0000 </r>
       <r>  -18.3059    1.0000 </r>
       <r>  -17.3075    1.0000 </r>
       <r>  -17.3074    1.0000 </r>
       <r>  -16.9870    1.0000 </r>
       <r>  -15.9390    1.0000 </r>
       <r>  -15.0096    1.0000 </r>
       <r>  -15.0096    1.0000 </r>
       <r>  -13.2819    1.0000 </r>
       <r>  -13.2819    1.0000 </r>
       <r>  -11.3580    1.0000 </r>
       <r>  -10.9878    1.0000 </r>
       <r>  -10.9877    1.0000 </r>
       <r>  -10.4999    1.0000 </r>
       <r>  -10.4998    1.0000 </r>
       <r>   -9.9053    1.0000 </r>
       <r>   -9.6353    1.0000 </r>
       <r>   -9.5358    1.0000 </r>
       <r>   -9.5354    1.0000 </r>
       <r>   -9.3359    1.0000 </r>
       <r>   -8.6672    1.0000 </r>
       <r>   -8.4185    1.0000 </r>
       <r>   -8.1249    1.0000 </r>
       <r>   -8.1248    1.0000 </r>
       <r>   -7.4093    1.0000 </r>
       <r>   -7.0534    1.0000 </r>
       <r>   -7.0531    1.0000 </r>
       <r>   -5.8557    1.0000 </r>
       <r>   -5.8556    1.0000 </r>
       <r>   -5.0628    1.0000 </r>
       <r>   -5.0124    1.0000 </r>
       <r>   -5.0124    1.0000 </r>
       <r>   -1.0893    0.0000 </r>
       <r>   -0.8234    0.0000 </r>
       <r>   -0.8233    0.0000 </r>
       <r>    0.4102    0.0000 </r>
       <r>    0.4104    0.0000 </r>
       <r>    1.4639    0.0000 </r>
       <r>    1.4641    0.0000 </r>
       <r>    2.2670    0.0000 </r>
       <r>    2.2670    0.0000 </r>
       <r>    2.6022    0.0000 </r>
      </set>
      <set comment="kpoint 14">
       <r>  -21.5620    1.0000 </r>
       <r>  -21.5619    1.0000 </r>
       <r>  -20.8213    1.0000 </r>
       <r>  -19.7261    1.0000 </r>
       <r>  -18.3060    1.0000 </r>
       <r>  -18.3059    1.0000 </r>
       <r>  -17.3075    1.0000 </r>
       <r>  -17.3074    1.0000 </r>
       <r>  -16.9870    1.0000 </r>
       <r>  -15.9390    1.0000 </r>
       <r>  -15.0097    1.0000 </r>
       <r>  -15.0095    1.0000 </r>
       <r>  -13.2820    1.0000 </r>
       <r>  -13.2818    1.0000 </r>
       <r>  -11.3579    1.0000 </r>
       <r>  -10.9878    1.0000 </r>
       <r>  -10.9877    1.0000 </r>
       <r>  -10.5000    1.0000 </r>
       <r>  -10.4998    1.0000 </r>
       <r>   -9.9053    1.0000 </r>
       <r>   -9.6351    1.0000 </r>
       <r>   -9.5359    1.0000 </r>
       <r>   -9.5356    1.0000 </r>
       <r>   -9.3359    1.0000 </r>
       <r>   -8.6671    1.0000 </r>
       <r>   -8.4185    1.0000 </r>
       <r>   -8.1249    1.0000 </r>
       <r>   -8.1248    1.0000 </r>
       <r>   -7.4091    1.0000 </r>
       <r>   -7.0535    1.0000 </r>
       <r>   -7.0531    1.0000 </r>
       <r>   -5.8557    1.0000 </r>
       <r>   -5.8556    1.0000 </r>
       <r>   -5.0628    1.0000 </r>
       <r>   -5.0124    1.0000 </r>
       <r>   -5.0124    1.0000 </r>
       <r>   -1.0893    0.0000 </r>
       <r>   -0.8234    0.0000 </r>
       <r>   -0.8232    0.0000 </r>
       <r>    0.4101    0.0000 </r>
       <r>    0.4106    0.0000 </r>
       <r>    1.4640    0.0000 </r>
       <r>    1.4640    0.0000 </r>
       <r>    2.2669    0.0000 </r>
       <r>    2.2670    0.0000 </r>
       <r>    2.6022    0.0000 </r>
      </set>
      <set comment="kpoint 15">
       <r>  -21.6151    1.0000 </r>
       <r>  -21.2437    1.0000 </r>
       <r>  -21.2436    1.0000 </r>
       <r>  -19.0600    1.0000 </r>
       <r>  -19.0599    1.0000 </r>
       <r>  -18.3556    1.0000 </r>
       <r>  -17.0888    1.0000 </r>
       <r>  -17.0887    1.0000 </r>
       <r>  -16.7115    1.0000 </r>
       <r>  -15.6765    1.0000 </r>
       <r>  -15.6143    1.0000 </r>
       <r>  -15.6142    1.0000 </r>
       <r>  -12.9180    1.0000 </r>
       <r>  -12.2633    1.0000 </r>
       <r>  -12.2632    1.0000 </r>
       <r>  -11.3540    1.0000 </r>
       <r>  -10.5572    1.0000 </r>
       <r>  -10.5493    1.0000 </r>
       <r>  -10.5492    1.0000 </r>
       <r>   -9.8195    1.0000 </r>
       <r>   -9.8194    1.0000 </r>
       <r>   -9.5986    1.0000 </r>
       <r>   -9.1610    1.0000 </r>
       <r>   -9.1609    1.0000 </r>
       <r>   -8.8219    1.0000 </r>
       <r>   -8.8218    1.0000 </r>
       <r>   -7.8828    1.0000 </r>
       <r>   -7.6861    1.0000 </r>
       <r>   -7.6860    1.0000 </r>
       <r>   -7.0825    1.0000 </r>
       <r>   -6.6646    1.0000 </r>
       <r>   -6.6645    1.0000 </r>
       <r>   -5.8934    1.0000 </r>
       <r>   -5.0051    1.0000 </r>
       <r>   -5.0051    1.0000 </r>
       <r>   -4.6730    1.0000 </r>
       <r>   -1.2278    0.0000 </r>
       <r>   -1.0248    0.0000 </r>
       <r>   -1.0247    0.0000 </r>
       <r>    0.5279    0.0000 </r>
       <r>    1.3910    0.0000 </r>
       <r>    1.4817    0.0000 </r>
       <r>    1.4826    0.0000 </r>
       <r>    1.9001    0.0000 </r>
       <r>    1.9004    0.0000 </r>
       <r>    2.1938    0.0000 </r>
      </set>
      <set comment="kpoint 16">
       <r>  -21.6151    1.0000 </r>
       <r>  -21.2437    1.0000 </r>
       <r>  -21.2436    1.0000 </r>
       <r>  -19.0600    1.0000 </r>
       <r>  -19.0599    1.0000 </r>
       <r>  -18.3556    1.0000 </r>
       <r>  -17.0888    1.0000 </r>
       <r>  -17.0887    1.0000 </r>
       <r>  -16.7115    1.0000 </r>
       <r>  -15.6765    1.0000 </r>
       <r>  -15.6143    1.0000 </r>
       <r>  -15.6142    1.0000 </r>
       <r>  -12.9180    1.0000 </r>
       <r>  -12.2633    1.0000 </r>
       <r>  -12.2632    1.0000 </r>
       <r>  -11.3540    1.0000 </r>
       <r>  -10.5571    1.0000 </r>
       <r>  -10.5494    1.0000 </r>
       <r>  -10.5491    1.0000 </r>
       <r>   -9.8195    1.0000 </r>
       <r>   -9.8194    1.0000 </r>
       <r>   -9.5985    1.0000 </r>
       <r>   -9.1612    1.0000 </r>
       <r>   -9.1609    1.0000 </r>
       <r>   -8.8219    1.0000 </r>
       <r>   -8.8218    1.0000 </r>
       <r>   -7.8828    1.0000 </r>
       <r>   -7.6860    1.0000 </r>
       <r>   -7.6860    1.0000 </r>
       <r>   -7.0828    1.0000 </r>
       <r>   -6.6647    1.0000 </r>
       <r>   -6.6642    1.0000 </r>
       <r>   -5.8934    1.0000 </r>
       <r>   -5.0051    1.0000 </r>
       <r>   -5.0051    1.0000 </r>
       <r>   -4.6730    1.0000 </r>
       <r>   -1.2278    0.0000 </r>
       <r>   -1.0248    0.0000 </r>
       <r>   -1.0246    0.0000 </r>
       <r>    0.5280    0.0000 </r>
       <r>    1.3893    0.0000 </r>
       <r>    1.4823    0.0000 </r>
       <r>    1.4839    0.0000 </r>
       <r>    1.9000    0.0000 </r>
       <r>    1.9002    0.0000 </r>
       <r>    2.1938    0.0000 </r>
      </set>
     </set>
    </set>
   </array>
  </eigenvalues>
  <separator name="orbital magnetization" >
   <v name="MAGDIPOLOUT">      0.00000000      0.00000000      0.00000000</v>
  </separator>
  <dos>
   <i name="efermi">     -2.75531616 </i>
   <total>
    <array>
     <dimension dim="1">gridpoints</dimension>
     <dimension dim="2">spin</dimension>
     <field>energy</field>
     <field>total</field>
     <field>integrated</field>
     <set>
      <set comment="spin 1">
       <r>   -23.5112     0.0000     0.0000 </r>
       <r>   -23.4191     0.0000     0.0000 </r>
       <r>   -23.3270     0.0000     0.0000 </r>
       <r>   -23.2350     0.0000     0.0000 </r>
       <r>   -23.1429     0.0000     0.0000 </r>
       <r>   -23.0509     0.0000     0.0000 </r>
       <r>   -22.9588     0.0000     0.0000 </r>
       <r>   -22.8667     0.0000     0.0000 </r>
       <r>   -22.7747     0.0000     0.0000 </r>
       <r>   -22.6826     0.0000     0.0000 </r>
       <r>   -22.5906     0.0000     0.0000 </r>
       <r>   -22.4985     0.0000     0.0000 </r>
       <r>   -22.4065     0.0000     0.0000 </r>
       <r>   -22.3144     0.0236     0.0022 </r>
       <r>   -22.2223     1.1016     0.1036 </r>
       <r>   -22.1303     2.3657     0.3214 </r>
       <r>   -22.0382     3.5650     0.6496 </r>
       <r>   -21.9462     1.5381     0.7912 </r>
       <r>   -21.8541     4.0172     1.1610 </r>
       <r>   -21.7620     2.8374     1.4222 </r>
       <r>   -21.6700     1.1185     1.5252 </r>
       <r>   -21.5779     3.8402     1.8787 </r>
       <r>   -21.4859     3.9185     2.2394 </r>
       <r>   -21.3938     1.6511     2.3914 </r>
       <r>   -21.3017     1.3294     2.5138 </r>
       <r>   -21.2097     4.2748     2.9074 </r>
       <r>   -21.1176     4.5905     3.3300 </r>
       <r>   -21.0256     1.5172     3.4696 </r>
       <r>   -20.9335     1.1202     3.5728 </r>
       <r>   -20.8414     2.3790     3.7918 </r>
       <r>   -20.7494     5.5265     4.3005 </r>
       <r>   -20.6573     2.1104     4.4948 </r>
       <r>   -20.5653     4.2981     4.8905 </r>
       <r>   -20.4732     0.5246     4.9388 </r>
       <r>   -20.3811     0.5262     4.9873 </r>
       <r>   -20.2891     5.1718     5.4634 </r>
       <r>   -20.1970     4.6654     5.8929 </r>
       <r>   -20.1050     2.9038     6.1602 </r>
       <r>   -20.0129     1.1391     6.2651 </r>
       <r>   -19.9208     4.0192     6.6351 </r>
       <r>   -19.8288     0.2004     6.6535 </r>
       <r>   -19.7367     1.3147     6.7745 </r>
       <r>   -19.6447     7.6693     7.4806 </r>
       <r>   -19.5526     2.5701     7.7172 </r>
       <r>   -19.4605     4.1453     8.0988 </r>
       <r>   -19.3685     0.2641     8.1231 </r>
       <r>   -19.2764     1.8322     8.2918 </r>
       <r>   -19.1844     3.4096     8.6057 </r>
       <r>   -19.0923     1.0307     8.7005 </r>
       <r>   -19.0002     4.7457     9.1374 </r>
       <r>   -18.9082     5.7806     9.6696 </r>
       <r>   -18.8161     2.0272     9.8562 </r>
       <r>   -18.7241     4.1036    10.2340 </r>
       <r>   -18.6320     1.0040    10.3264 </r>
       <r>   -18.5399     0.0441    10.3305 </r>
       <r>   -18.4479     3.0451    10.6108 </r>
       <r>   -18.3558     3.9636    10.9757 </r>
       <r>   -18.2638     5.6253    11.4935 </r>
       <r>   -18.1717     2.4885    11.7226 </r>
       <r>   -18.0796     4.2306    12.1121 </r>
       <r>   -17.9876     1.9599    12.2925 </r>
       <r>   -17.8955     3.7770    12.6403 </r>
       <r>   -17.8035     1.4656    12.7752 </r>
       <r>   -17.7114     0.0062    12.7757 </r>
       <r>   -17.6193     1.7353    12.9355 </r>
       <r>   -17.5273     8.7304    13.7392 </r>
       <r>   -17.4352     4.9812    14.1978 </r>
       <r>   -17.3432     1.3445    14.3216 </r>
       <r>   -17.2511     4.8957    14.7722 </r>
       <r>   -17.1590     2.3124    14.9851 </r>
       <r>   -17.0670     3.8609    15.3406 </r>
       <r>   -16.9749     3.0806    15.6242 </r>
       <r>   -16.8829     0.9791    15.7143 </r>
       <r>   -16.7908     1.5278    15.8550 </r>
       <r>   -16.6987     8.7748    16.6628 </r>
       <r>   -16.6067     5.4719    17.1665 </r>
       <r>   -16.5146     0.1864    17.1837 </r>
       <r>   -16.4226     0.0000    17.1837 </r>
       <r>   -16.3305     0.0000    17.1837 </r>
       <r>   -16.2384     0.0398    17.1873 </r>
       <r>   -16.1464     1.7355    17.3471 </r>
       <r>   -16.0543     1.1345    17.4515 </r>
       <r>   -15.9623     4.8151    17.8948 </r>
       <r>   -15.8702     2.8468    18.1569 </r>
       <r>   -15.7781     0.5499    18.2075 </r>
       <r>   -15.6861     3.2144    18.5034 </r>
       <r>   -15.5940     5.4095    19.0014 </r>
       <r>   -15.5020     1.5322    19.1425 </r>
       <r>   -15.4099     0.0485    19.1470 </r>
       <r>   -15.3178     1.6378    19.2977 </r>
       <r>   -15.2258    10.0278    20.2209 </r>
       <r>   -15.1337     3.3577    20.5300 </r>
       <r>   -15.0417     0.9772    20.6199 </r>
       <r>   -14.9496     4.9164    21.0725 </r>
       <r>   -14.8575     4.4503    21.4822 </r>
       <r>   -14.7655     1.2673    21.5989 </r>
       <r>   -14.6734     2.8354    21.8599 </r>
       <r>   -14.5814     8.5591    22.6479 </r>
       <r>   -14.4893     0.9425    22.7347 </r>
       <r>   -14.3972     0.0897    22.7429 </r>
       <r>   -14.3052     3.7544    23.0885 </r>
       <r>   -14.2131     4.1419    23.4698 </r>
       <r>   -14.1211     4.5452    23.8883 </r>
       <r>   -14.0290     0.8423    23.9658 </r>
       <r>   -13.9369     3.4083    24.2796 </r>
       <r>   -13.8449     1.8353    24.4485 </r>
       <r>   -13.7528     1.2524    24.5638 </r>
       <r>   -13.6608     4.0105    24.9330 </r>
       <r>   -13.5687     2.3017    25.1449 </r>
       <r>   -13.4766     4.3542    25.5458 </r>
       <r>   -13.3846     1.3970    25.6744 </r>
       <r>   -13.2925     2.4344    25.8985 </r>
       <r>   -13.2005     3.7011    26.2392 </r>
       <r>   -13.1084     0.0621    26.2449 </r>
       <r>   -13.0164     0.7515    26.3141 </r>
       <r>   -12.9243     9.5457    27.1929 </r>
       <r>   -12.8322     4.9802    27.6514 </r>
       <r>   -12.7402     3.2849    27.9538 </r>
       <r>   -12.6481     0.3489    27.9859 </r>
       <r>   -12.5561     2.1440    28.1833 </r>
       <r>   -12.4640     0.2414    28.2055 </r>
       <r>   -12.3719     1.5835    28.3513 </r>
       <r>   -12.2799     7.9809    29.0860 </r>
       <r>   -12.1878     8.6827    29.8853 </r>
       <r>   -12.0958     2.9851    30.1601 </r>
       <r>   -12.0037     0.0420    30.1640 </r>
       <r>   -11.9116     1.8863    30.3376 </r>
       <r>   -11.8196     3.4036    30.6510 </r>
       <r>   -11.7275     3.6746    30.9893 </r>
       <r>   -11.6355     6.4900    31.5867 </r>
       <r>   -11.5434     0.4987    31.6326 </r>
       <r>   -11.4513     0.2233    31.6532 </r>
       <r>   -11.3593     6.4953    32.2512 </r>
       <r>   -11.2672     6.0315    32.8064 </r>
       <r>   -11.1752     3.3775    33.1173 </r>
       <r>   -11.0831     5.6022    33.6331 </r>
       <r>   -10.9910     4.6676    34.0628 </r>
       <r>   -10.8990     2.8330    34.3236 </r>
       <r>   -10.8069     0.0321    34.3265 </r>
       <r>   -10.7149     0.0023    34.3267 </r>
       <r>   -10.6228     1.4307    34.4585 </r>
       <r>   -10.5307    11.0822    35.4787 </r>
       <r>   -10.4387    10.7380    36.4672 </r>
       <r>   -10.3466     2.7533    36.7207 </r>
       <r>   -10.2546     5.9517    37.2686 </r>
       <r>   -10.1625     2.0414    37.4565 </r>
       <r>   -10.0704     4.2457    37.8474 </r>
       <r>    -9.9784     4.9980    38.3075 </r>
       <r>    -9.8863    10.8321    39.3047 </r>
       <r>    -9.7943    10.0371    40.2287 </r>
       <r>    -9.7022     6.1711    40.7968 </r>
       <r>    -9.6101     8.8863    41.6149 </r>
       <r>    -9.5181     8.7471    42.4202 </r>
       <r>    -9.4260     5.5448    42.9306 </r>
       <r>    -9.3340     3.7445    43.2753 </r>
       <r>    -9.2419    10.4701    44.2392 </r>
       <r>    -9.1498    11.8894    45.3338 </r>
       <r>    -9.0578    15.0012    46.7148 </r>
       <r>    -8.9657     6.7084    47.3323 </r>
       <r>    -8.8737     2.9001    47.5993 </r>
       <r>    -8.7816    12.7185    48.7702 </r>
       <r>    -8.6895     6.7398    49.3906 </r>
       <r>    -8.5975     7.4027    50.0721 </r>
       <r>    -8.5054     7.1527    50.7306 </r>
       <r>    -8.4134     8.0125    51.4682 </r>
       <r>    -8.3213     3.3043    51.7724 </r>
       <r>    -8.2292     4.0787    52.1479 </r>
       <r>    -8.1372     5.4698    52.6515 </r>
       <r>    -8.0451    13.9575    53.9364 </r>
       <r>    -7.9531     5.1275    54.4084 </r>
       <r>    -7.8610     4.9976    54.8685 </r>
       <r>    -7.7689     1.1266    54.9722 </r>
       <r>    -7.6769     8.5258    55.7571 </r>
       <r>    -7.5848     6.9415    56.3961 </r>
       <r>    -7.4928     5.1746    56.8725 </r>
       <r>    -7.4007     2.8836    57.1380 </r>
       <r>    -7.3086     7.3941    57.8187 </r>
       <r>    -7.2166     2.2080    58.0219 </r>
       <r>    -7.1245    10.1092    58.9526 </r>
       <r>    -7.0325     7.9162    59.6814 </r>
       <r>    -6.9404     3.3265    59.9876 </r>
       <r>    -6.8483     3.5877    60.3179 </r>
       <r>    -6.7563     0.1319    60.3300 </r>
       <r>    -6.6642     4.3206    60.7278 </r>
       <r>    -6.5722    10.5946    61.7031 </r>
       <r>    -6.4801     8.8095    62.5141 </r>
       <r>    -6.3880     4.1365    62.8949 </r>
       <r>    -6.2960     3.9983    63.2630 </r>
       <r>    -6.2039     1.7937    63.4281 </r>
       <r>    -6.1119     4.9891    63.8874 </r>
       <r>    -6.0198     4.7238    64.3223 </r>
       <r>    -5.9277     2.9092    64.5901 </r>
       <r>    -5.8357     7.9578    65.3227 </r>
       <r>    -5.7436     7.1532    65.9812 </r>
       <r>    -5.6516     3.4127    66.2954 </r>
       <r>    -5.5595     3.7910    66.6444 </r>
       <r>    -5.4674     1.4751    66.7802 </r>
       <r>    -5.3754     3.2053    67.0753 </r>
       <r>    -5.2833     2.0749    67.2663 </r>
       <r>    -5.1913     1.5229    67.4065 </r>
       <r>    -5.0992     3.2307    67.7039 </r>
       <r>    -5.0071    15.7175    69.1509 </r>
       <r>    -4.9151     6.0749    69.7101 </r>
       <r>    -4.8230     0.0453    69.7143 </r>
       <r>    -4.7310     0.1346    69.7267 </r>
       <r>    -4.6389     2.0805    69.9182 </r>
       <r>    -4.5468     0.4479    69.9594 </r>
       <r>    -4.4548     1.4199    70.0902 </r>
       <r>    -4.3627     3.9653    70.4552 </r>
       <r>    -4.2707     5.0787    70.9228 </r>
       <r>    -4.1786     2.7991    71.1804 </r>
       <r>    -4.0866     0.0351    71.1837 </r>
       <r>    -3.9945     0.0095    71.1845 </r>
       <r>    -3.9024     1.2293    71.2977 </r>
       <r>    -3.8104     1.4057    71.4271 </r>
       <r>    -3.7183     0.0157    71.4286 </r>
       <r>    -3.6263     0.0129    71.4298 </r>
       <r>    -3.5342     2.1981    71.6321 </r>
       <r>    -3.4421     3.0647    71.9142 </r>
       <r>    -3.3501     0.0447    71.9184 </r>
       <r>    -3.2580     0.0000    71.9184 </r>
       <r>    -3.1660     0.0000    71.9184 </r>
       <r>    -3.0739     0.0000    71.9184 </r>
       <r>    -2.9818     0.0000    71.9184 </r>
       <r>    -2.8898     0.0001    71.9184 </r>
       <r>    -2.7977     0.2042    71.9372 </r>
       <r>    -2.7057     1.4271    72.0686 </r>
       <r>    -2.6136     0.1419    72.0816 </r>
       <r>    -2.5215     0.0001    72.0816 </r>
       <r>    -2.4295     0.0000    72.0816 </r>
       <r>    -2.3374     0.0000    72.0816 </r>
       <r>    -2.2454     0.0000    72.0816 </r>
       <r>    -2.1533     0.0001    72.0816 </r>
       <r>    -2.0612     0.2921    72.1085 </r>
       <r>    -1.9692     4.1904    72.4943 </r>
       <r>    -1.8771     0.8371    72.5714 </r>
       <r>    -1.7851     0.0475    72.5757 </r>
       <r>    -1.6930     1.7894    72.7405 </r>
       <r>    -1.6009     0.8215    72.8161 </r>
       <r>    -1.5089     0.0026    72.8163 </r>
       <r>    -1.4168     0.0022    72.8165 </r>
       <r>    -1.3248     1.8928    72.9908 </r>
       <r>    -1.2327    11.5131    74.0507 </r>
       <r>    -1.1406     2.7321    74.3022 </r>
       <r>    -1.0486     3.5159    74.6259 </r>
       <r>    -0.9565     5.8730    75.1665 </r>
       <r>    -0.8645     1.7202    75.3249 </r>
       <r>    -0.7724     4.3116    75.7218 </r>
       <r>    -0.6803     3.3394    76.0292 </r>
       <r>    -0.5883     4.7851    76.4697 </r>
       <r>    -0.4962     2.9630    76.7425 </r>
       <r>    -0.4042     3.7668    77.0893 </r>
       <r>    -0.3121     3.3780    77.4003 </r>
       <r>    -0.2200     5.1911    77.8782 </r>
       <r>    -0.1280     0.8777    77.9590 </r>
       <r>    -0.0359     0.0027    77.9592 </r>
       <r>     0.0561     0.5274    78.0078 </r>
       <r>     0.1482     4.2947    78.4031 </r>
       <r>     0.2403     1.4512    78.5367 </r>
       <r>     0.3323     4.1955    78.9230 </r>
       <r>     0.4244     3.6601    79.2599 </r>
       <r>     0.5164     3.0662    79.5422 </r>
       <r>     0.6085     3.6497    79.8782 </r>
       <r>     0.7006     1.3146    79.9992 </r>
       <r>     0.7926     5.8956    80.5420 </r>
       <r>     0.8847     5.8580    81.0812 </r>
       <r>     0.9767     1.5010    81.2194 </r>
       <r>     1.0688     4.2785    81.6133 </r>
       <r>     1.1609     1.8081    81.7798 </r>
       <r>     1.2529     5.7053    82.3050 </r>
       <r>     1.3450     2.0900    82.4974 </r>
       <r>     1.4370     6.8794    83.1307 </r>
       <r>     1.5291    14.1620    84.4345 </r>
       <r>     1.6212     4.4210    84.8415 </r>
       <r>     1.7132     4.6902    85.2732 </r>
       <r>     1.8053     3.3394    85.5807 </r>
       <r>     1.8973     8.8342    86.3939 </r>
       <r>     1.9894     8.8362    87.2074 </r>
       <r>     2.0815     9.2110    88.0553 </r>
       <r>     2.1735     6.9810    88.6980 </r>
       <r>     2.2656     6.8958    89.3328 </r>
       <r>     2.3576     7.3651    90.0109 </r>
       <r>     2.4497     5.5576    90.5225 </r>
       <r>     2.5418     2.7242    90.7733 </r>
       <r>     2.6338     3.6326    91.1077 </r>
       <r>     2.7259     2.3293    91.3222 </r>
       <r>     2.8179     4.6832    91.7533 </r>
       <r>     2.9100     2.5500    91.9880 </r>
       <r>     3.0021     0.1299    92.0000 </r>
       <r>     3.0941     0.0000    92.0000 </r>
       <r>     3.1862     0.0000    92.0000 </r>
       <r>     3.2782     0.0000    92.0000 </r>
       <r>     3.3703     0.0000    92.0000 </r>
       <r>     3.4624     0.0000    92.0000 </r>
       <r>     3.5544     0.0000    92.0000 </r>
       <r>     3.6465     0.0000    92.0000 </r>
       <r>     3.7385     0.0000    92.0000 </r>
       <r>     3.8306     0.0000    92.0000 </r>
       <r>     3.9227     0.0000    92.0000 </r>
       <r>     4.0147     0.0000    92.0000 </r>
       <r>     4.1068     0.0000    92.0000 </r>
      </set>
     </set>
    </array>
   </total>
  </dos>
 </calculation>
 <structure name="finalpos" >
  <crystal>
   <varray name="basis" >
    <v>       7.40170591       0.00000000       0.00000000 </v>
    <v>      -3.70085295       6.41006527       0.00000000 </v>
    <v>       0.00000000       0.00000000      20.00000000 </v>
   </varray>
   <i name="volume">    948.90835877 </i>
   <varray name="rec_basis" >
    <v>       0.13510399       0.07800233       0.00000000 </v>
    <v>       0.00000000       0.15600465       0.00000000 </v>
    <v>       0.00000000       0.00000000       0.05000000 </v>
   </varray>
  </crystal>
  <varray name="positions" >
   <v>       0.00000000       0.00000000       0.50050000 </v>
   <v>       0.33333333       0.00000000       0.50050000 </v>
   <v>       0.66666667       0.00000000       0.50000000 </v>
   <v>       0.00000000       0.33333333       0.50000000 </v>
   <v>       0.33333333       0.33333333       0.50000000 </v>
   <v>       0.66666667       0.33333333       0.50000000 </v>
   <v>       0.00000000       0.66666667       0.50000000 </v>
   <v>       0.33333333       0.66666667       0.50000000 </v>
   <v>       0.66666667       0.66666667       0.50000000 </v>
   <v>       0.22222222       0.11111111       0.50000000 </v>
   <v>       0.55555556       0.11111111       0.50000000 </v>
   <v>       0.88888889       0.11111111       0.50000000 </v>
   <v>       0.22222222       0.44444444       0.50000000 </v>
   <v>       0.55555556       0.44444444       0.50000000 </v>
   <v>       0.88888889       0.44444444       0.50000000 </v>
   <v>       0.22222222       0.77777778       0.50000000 </v>
   <v>       0.55555556       0.77777778       0.50000000 </v>
   <v>       0.88888889       0.77777778       0.50000000 </v>
  </varray>
 </structure>
</modeling>
