<?xml version="1.0" encoding="ISO-8859-1"?>
<modeling>
 <generator>
  <i name="program" type="string">vasp </i>
  <i name="version" type="string">6.4.1  </i>
  <i name="subversion" type="string">05Apr23 (build Feb 12 2025 00:37:39) complex                          parallel </i>
  <i name="platform" type="string">LinuxIFC </i>
  <i name="date" type="string">2025 02 14 </i>
  <i name="time" type="string">04:55:06 </i>
 </generator>
 <incar>
  <i type="string" name="SYSTEM">SCF</i>
  <i type="int" name="ISTART">     0</i>
  <i type="int" name="ICHARG">     2</i>
  <i type="int" name="NELM">    60</i>
  <i type="int" name="NELMIN">     6</i>
  <i name="EDIFF">      0.00000100</i>
  <i name="EDIFFG">     -0.00000100</i>
  <i name="ENCUT">    600.00000000</i>
  <i type="string" name="LREAL">Auto</i>
  <i type="int" name="ISMEAR">     0</i>
  <i name="SIGMA">      0.05000000</i>
  <i type="logical" name="LWAVE"> F  </i>
  <i type="logical" name="LCHARG"> F  </i>
 </incar>
 <primitive_cell>
  <structure name="primitive_cell" >
   <crystal>
    <varray name="basis" >
     <v>       7.40170591       0.00000000       0.00000000 </v>
     <v>      -3.70085295       6.41006527       0.00000000 </v>
     <v>       0.00000000       0.00000000      20.00000000 </v>
    </varray>
    <i name="volume">    948.90835877 </i>
    <varray name="rec_basis" >
     <v>       0.13510399       0.07800233       0.00000000 </v>
     <v>       0.00000000       0.15600465       0.00000000 </v>
     <v>       0.00000000       0.00000000       0.05000000 </v>
    </varray>
   </crystal>
   <varray name="positions" >
    <v>       0.99921998       0.99843995       0.50000000 </v>
    <v>       0.33411336       0.00156005       0.50000000 </v>
    <v>       0.66666667       0.00000000       0.50000000 </v>
    <v>       1.00000000       0.33333333       0.50000000 </v>
    <v>       0.33333333       0.33333333       0.50000000 </v>
    <v>       0.66666667       0.33333333       0.50000000 </v>
    <v>       1.00000000       0.66666667       0.50000000 </v>
    <v>       0.33333333       0.66666667       0.50000000 </v>
    <v>       0.66666667       0.66666667       0.50000000 </v>
    <v>       0.22222222       0.11111111       0.50000000 </v>
    <v>       0.55555556       0.11111111       0.50000000 </v>
    <v>       0.88888889       0.11111111       0.50000000 </v>
    <v>       0.22222222       0.44444444       0.50000000 </v>
    <v>       0.55555556       0.44444444       0.50000000 </v>
    <v>       0.88888889       0.44444444       0.50000000 </v>
    <v>       0.22222222       0.77777778       0.50000000 </v>
    <v>       0.55555556       0.77777778       0.50000000 </v>
    <v>       0.88888889       0.77777778       0.50000000 </v>
   </varray>
  </structure>
  <varray name="primitive_index" >
   <v type="int" >        1 </v>
   <v type="int" >        2 </v>
   <v type="int" >        3 </v>
   <v type="int" >        4 </v>
   <v type="int" >        5 </v>
   <v type="int" >        6 </v>
   <v type="int" >        7 </v>
   <v type="int" >        8 </v>
   <v type="int" >        9 </v>
   <v type="int" >       10 </v>
   <v type="int" >       11 </v>
   <v type="int" >       12 </v>
   <v type="int" >       13 </v>
   <v type="int" >       14 </v>
   <v type="int" >       15 </v>
   <v type="int" >       16 </v>
   <v type="int" >       17 </v>
   <v type="int" >       18 </v>
  </varray>
 </primitive_cell>
 <kpoints>
  <generation param="Gamma">
   <v type="int" name="divisions">       7        7        1 </v>
   <v name="usershift">      0.00000000       0.00000000       0.00000000 </v>
   <v name="genvec1">      0.14285714       0.00000000       0.00000000 </v>
   <v name="genvec2">      0.00000000       0.14285714       0.00000000 </v>
   <v name="genvec3">      0.00000000       0.00000000       1.00000000 </v>
   <v name="shift">      0.00000000       0.00000000       0.00000000 </v>
  </generation>
  <varray name="kpointlist" >
   <v>       0.00000000       0.00000000       0.00000000 </v>
   <v>       0.14285714       0.00000000       0.00000000 </v>
   <v>       0.00000000       0.14285714       0.00000000 </v>
   <v>      -0.14285714       0.14285714       0.00000000 </v>
   <v>       0.28571429       0.00000000       0.00000000 </v>
   <v>       0.00000000       0.28571429       0.00000000 </v>
   <v>      -0.28571429       0.28571429       0.00000000 </v>
   <v>       0.42857143       0.00000000       0.00000000 </v>
   <v>       0.00000000       0.42857143       0.00000000 </v>
   <v>      -0.42857143       0.42857143       0.00000000 </v>
   <v>       0.14285714       0.14285714       0.00000000 </v>
   <v>      -0.14285714       0.28571429       0.00000000 </v>
   <v>      -0.28571429       0.14285714       0.00000000 </v>
   <v>       0.28571429       0.14285714       0.00000000 </v>
   <v>      -0.14285714       0.42857143       0.00000000 </v>
   <v>      -0.42857143       0.28571429       0.00000000 </v>
   <v>      -0.28571429       0.42857143       0.00000000 </v>
   <v>       0.14285714       0.28571429       0.00000000 </v>
   <v>       0.42857143      -0.14285714       0.00000000 </v>
   <v>       0.42857143       0.14285714       0.00000000 </v>
   <v>      -0.14285714      -0.42857143       0.00000000 </v>
   <v>       0.42857143       0.42857143       0.00000000 </v>
   <v>       0.28571429       0.28571429       0.00000000 </v>
   <v>      -0.28571429      -0.42857143       0.00000000 </v>
   <v>       0.42857143       0.28571429       0.00000000 </v>
  </varray>
  <varray name="weights" >
   <v>       0.02040816 </v>
   <v>       0.04081633 </v>
   <v>       0.04081633 </v>
   <v>       0.04081633 </v>
   <v>       0.04081633 </v>
   <v>       0.04081633 </v>
   <v>       0.04081633 </v>
   <v>       0.04081633 </v>
   <v>       0.04081633 </v>
   <v>       0.04081633 </v>
   <v>       0.04081633 </v>
   <v>       0.04081633 </v>
   <v>       0.04081633 </v>
   <v>       0.04081633 </v>
   <v>       0.04081633 </v>
   <v>       0.04081633 </v>
   <v>       0.04081633 </v>
   <v>       0.04081633 </v>
   <v>       0.04081633 </v>
   <v>       0.04081633 </v>
   <v>       0.04081633 </v>
   <v>       0.04081633 </v>
   <v>       0.04081633 </v>
   <v>       0.04081633 </v>
   <v>       0.04081633 </v>
  </varray>
 </kpoints>
 <parameters>
  <separator name="general" >
   <i type="string" name="SYSTEM">SCF</i>
   <i type="logical" name="LCOMPAT"> F  </i>
  </separator>
  <separator name="electronic" >
   <i type="string" name="PREC">normal</i>
   <i name="ENMAX">    600.00000000</i>
   <i name="ENAUG">    644.87300000</i>
   <i name="EDIFF">      0.00000100</i>
   <i type="int" name="IALGO">    38</i>
   <i type="int" name="IWAVPR">    10</i>
   <i type="int" name="NBANDS">    46</i>
   <i type="int" name="NBANDSLOW">    -1</i>
   <i type="int" name="NBANDSHIGH">    -1</i>
   <i name="NELECT">     72.00000000</i>
   <i type="int" name="TURBO">     0</i>
   <i type="int" name="IRESTART">     0</i>
   <i type="int" name="NREBOOT">     0</i>
   <i type="int" name="NMIN">     0</i>
   <i name="EREF">      0.00000000</i>
   <separator name="electronic smearing" >
    <i type="int" name="ISMEAR">     0</i>
    <i name="SIGMA">      0.05000000</i>
    <i name="KSPACING">      0.50000000</i>
    <i type="logical" name="KGAMMA"> T  </i>
    <i type="logical" name="KBLOWUP"> T  </i>
   </separator>
   <separator name="electronic projectors" >
    <i type="logical" name="LREAL"> T  </i>
    <v name="ROPT">     -0.00050000</v>
    <i type="int" name="LMAXPAW">  -100</i>
    <i type="int" name="LMAXMIX">     2</i>
    <i type="logical" name="NLSPLINE"> F  </i>
   </separator>
   <separator name="electronic startup" >
    <i type="int" name="ISTART">     0</i>
    <i type="int" name="ICHARG">     2</i>
    <i type="int" name="INIWAV">     1</i>
   </separator>
   <separator name="electronic spin" >
    <i type="int" name="ISPIN">     1</i>
    <i type="logical" name="LNONCOLLINEAR"> F  </i>
    <v name="MAGMOM">      1.00000000      1.00000000      1.00000000      1.00000000      1.00000000      1.00000000      1.00000000      1.00000000      1.00000000      1.00000000      1.00000000      1.00000000      1.00000000      1.00000000      1.00000000      1.00000000      1.00000000      1.00000000</v>
    <i name="NUPDOWN">     -1.00000000</i>
    <i type="logical" name="LSORBIT"> F  </i>
    <v name="SAXIS">      0.00000000      0.00000000      1.00000000</v>
    <i type="logical" name="LSPIRAL"> F  </i>
    <v name="QSPIRAL">      0.00000000      0.00000000      0.00000000</v>
    <i type="logical" name="LZEROZ"> F  </i>
   </separator>
   <separator name="electronic exchange-correlation" >
    <i type="logical" name="LASPH"> F  </i>
    <i type="logical" name="LMETAGGA"> F  </i>
   </separator>
   <separator name="electronic convergence" >
    <i type="int" name="NELM">    60</i>
    <i type="int" name="NELMDL">    -5</i>
    <i type="int" name="NELMIN">     6</i>
    <i name="ENINI">    600.00000000</i>
    <separator name="electronic convergence detail" >
     <i type="logical" name="LDIAG"> T  </i>
     <i type="logical" name="LSUBROT"> F  </i>
     <i name="WEIMIN">      0.00000000</i>
     <i name="EBREAK">      0.00000000</i>
     <i name="DEPER">      0.30000000</i>
     <i type="int" name="NRMM">     4</i>
     <i name="TIME">      0.40000000</i>
    </separator>
   </separator>
   <separator name="electronic mixer" >
    <i name="AMIX">      0.40000000</i>
    <i name="BMIX">      1.00000000</i>
    <i name="AMIN">      0.10000000</i>
    <i name="AMIX_MAG">      1.60000000</i>
    <i name="BMIX_MAG">      1.00000000</i>
    <separator name="electronic mixer details" >
     <i type="int" name="IMIX">     4</i>
     <i type="logical" name="MIXFIRST"> F  </i>
     <i type="int" name="MAXMIX">   -45</i>
     <i name="WC">    100.00000000</i>
     <i type="int" name="INIMIX">     1</i>
     <i type="int" name="MIXPRE">     1</i>
     <i type="int" name="MREMOVE">     5</i>
    </separator>
   </separator>
   <separator name="electronic dipolcorrection" >
    <i type="logical" name="LDIPOL"> F  </i>
    <i type="logical" name="LMONO"> F  </i>
    <i type="int" name="IDIPOL">     0</i>
    <i name="EPSILON">      1.00000000</i>
    <v name="DIPOL">   -100.00000000   -100.00000000   -100.00000000</v>
    <i name="EFIELD">      0.00000000</i>
   </separator>
  </separator>
  <separator name="grids" >
   <i type="int" name="NGX">    48</i>
   <i type="int" name="NGY">    48</i>
   <i type="int" name="NGZ">   120</i>
   <i type="int" name="NGXF">    96</i>
   <i type="int" name="NGYF">    96</i>
   <i type="int" name="NGZF">   240</i>
   <i type="logical" name="ADDGRID"> F  </i>
  </separator>
  <separator name="ionic" >
   <i type="int" name="NSW">     0</i>
   <i type="int" name="IBRION">    -1</i>
   <i type="int" name="MDALGO">     0</i>
   <i type="int" name="ISIF">     2</i>
   <i name="PSTRESS">      0.00000000</i>
   <i name="EDIFFG">     -0.00000100</i>
   <i type="int" name="NFREE">     0</i>
   <i name="POTIM">      0.50000000</i>
   <i name="SMASS">     -3.00000000</i>
   <i name="SCALEE">      1.00000000</i>
  </separator>
  <separator name="ionic md" >
   <i name="TEBEG">      0.00010000</i>
   <i name="TEEND">      0.00010000</i>
   <i type="int" name="NBLOCK">     1</i>
   <i type="int" name="KBLOCK">     1</i>
   <i type="int" name="NPACO">   256</i>
   <i name="APACO">     10.00000000</i>
  </separator>
  <separator name="symmetry" >
   <i type="int" name="ISYM">     2</i>
   <i name="SYMPREC">      0.00001000</i>
  </separator>
  <separator name="dos" >
   <i type="int" name="LORBIT">     0</i>
   <v name="RWIGS">     -1.00000000</v>
   <i type="int" name="NEDOS">   301</i>
   <i name="EMIN">     10.00000000</i>
   <i name="EMAX">    -10.00000000</i>
   <i name="EFERMI">      0.00000000</i>
  </separator>
  <separator name="writing" >
   <i type="int" name="NWRITE">     2</i>
   <i type="logical" name="LWAVE"> F  </i>
   <i type="logical" name="LDOWNSAMPLE"> F  </i>
   <i type="logical" name="LCHARG"> F  </i>
   <i type="logical" name="LPARD"> F  </i>
   <i type="logical" name="LVTOT"> F  </i>
   <i type="logical" name="LVHAR"> F  </i>
   <i type="logical" name="LELF"> F  </i>
   <i type="logical" name="LOPTICS"> F  </i>
   <v name="STM">      0.00000000      0.00000000      0.00000000      0.00000000      0.00000000      0.00000000      0.00000000</v>
  </separator>
  <separator name="performance" >
   <i type="int" name="NPAR">     2</i>
   <i type="int" name="NSIM">     4</i>
   <i type="int" name="NBLK">    -1</i>
   <i type="logical" name="LPLANE"> T  </i>
   <i type="logical" name="LSCALAPACK"> T  </i>
   <i type="logical" name="LSCAAWARE"> F  </i>
   <i type="logical" name="LSCALU"> F  </i>
   <i type="logical" name="LASYNC"> F  </i>
   <i type="logical" name="LORBITALREAL"> F  </i>
  </separator>
  <separator name="miscellaneous" >
   <i type="int" name="IDIOT">     3</i>
   <i type="int" name="PHON_NSTRUCT">    -1</i>
   <i type="logical" name="LMUSIC"> F  </i>
   <v name="POMASS">     12.01100000</v>
   <v name="DARWINR">      0.00000000</v>
   <v name="DARWINV">      1.00000000</v>
   <i type="logical" name="LCORR"> T  </i>
  </separator>
  <i type="logical" name="GGA_COMPAT"> T  </i>
  <i type="logical" name="LBERRY"> F  </i>
  <i type="int" name="ICORELEVEL">     0</i>
  <i type="logical" name="LDAU"> F  </i>
  <i type="int" name="I_CONSTRAINED_M">     0</i>
  <separator name="electronic exchange-correlation" >
   <i type="string" name="GGA">--</i>
   <i type="int" name="VOSKOWN">     0</i>
   <i type="logical" name="LHFCALC"> F  </i>
   <i type="string" name="PRECFOCK"></i>
   <i type="logical" name="LSYMGRAD"> F  </i>
   <i type="logical" name="LHFONE"> F  </i>
   <i type="logical" name="LRHFCALC"> F  </i>
   <i type="logical" name="LTHOMAS"> F  </i>
   <i type="logical" name="LMODELHF"> F  </i>
   <i type="logical" name="LFOCKACE"> F  </i>
   <i name="ENCUT4O">     -1.00000000</i>
   <i type="int" name="EXXOEP">     0</i>
   <i type="int" name="FOURORBIT">     0</i>
   <i name="AEXX">      0.00000000</i>
   <i name="HFALPHA">      0.00000000</i>
   <i name="MCALPHA">      0.00000000</i>
   <i name="ALDAX">      1.00000000</i>
   <i name="AGGAX">      1.00000000</i>
   <i name="ALDAC">      1.00000000</i>
   <i name="AGGAC">      1.00000000</i>
   <i type="int" name="NKREDX">     1</i>
   <i type="int" name="NKREDY">     1</i>
   <i type="int" name="NKREDZ">     1</i>
   <i type="logical" name="SHIFTRED"> F  </i>
   <i type="logical" name="ODDONLY"> F  </i>
   <i type="logical" name="EVENONLY"> F  </i>
   <i type="int" name="LMAXFOCK">     0</i>
   <i type="int" name="NMAXFOCKAE">     0</i>
   <i type="logical" name="LFOCKAEDFT"> F  </i>
   <i name="HFSCREEN">      0.00000000</i>
   <i name="HFSCREENC">      0.00000000</i>
   <i type="int" name="NBANDSGWLOW">     0</i>
  </separator>
  <separator name="vdW DFT" >
   <i type="logical" name="LUSE_VDW"> F  </i>
   <i type="int" name="IVDW_NL">     1</i>
   <i type="logical" name="LSPIN_VDW"> F  </i>
   <i name="Zab_VDW">     -0.84910000</i>
   <i name="PARAM1">      0.12340000</i>
   <i name="PARAM2">      1.00000000</i>
   <i name="PARAM3">      0.00000000</i>
  </separator>
  <separator name="model GW" >
   <i type="int" name="MODEL_GW">     0</i>
   <i name="MODEL_EPS0">     31.63027863</i>
   <i name="MODEL_ALPHA">      1.00000000</i>
  </separator>
  <separator name="linear response parameters" >
   <i type="logical" name="LEPSILON"> F  </i>
   <i type="logical" name="LRPA"> F  </i>
   <i type="logical" name="LNABLA"> F  </i>
   <i type="logical" name="LVEL"> F  </i>
   <i name="CSHIFT">      0.10000000</i>
   <i name="OMEGAMAX">     -1.00000000</i>
   <i name="DEG_THRESHOLD">      0.00200000</i>
   <i name="RTIME">     -0.10000000</i>
   <i name="WPLASMAI">      0.00000000</i>
   <v name="DFIELD">      0.00000000      0.00000000      0.00000000</v>
   <v name="WPLASMA">      0.00000000      0.00000000      0.00000000      0.00000000      0.00000000      0.00000000      0.00000000      0.00000000      0.00000000</v>
  </separator>
  <separator name="orbital magnetization" >
   <i type="logical" name="NUCIND"> F  </i>
   <v name="MAGPOS">      0.00000000      0.00000000      0.00000000</v>
   <i type="logical" name="LNICSALL"> T  </i>
   <i type="logical" name="ORBITALMAG"> F  </i>
   <i type="logical" name="LMAGBLOCH"> F  </i>
   <i type="logical" name="LCHIMAG"> F  </i>
   <i type="logical" name="LGAUGE"> T  </i>
   <i type="int" name="MAGATOM">     0</i>
   <v name="MAGDIPOL">      0.00000000      0.00000000      0.00000000</v>
   <v name="AVECCONST">      0.00000000      0.00000000      0.00000000</v>
  </separator>
  <separator name="response functions" >
   <i type="logical" name="LALL_IN_ONE"> F  </i>
   <i type="int" name="IALL_IN_ONE">    -1</i>
   <i type="int" name="NBANDS_WAVE">    -1</i>
   <i type="logical" name="LFINITE_TEMPERATURE"> F  </i>
   <i type="logical" name="LADDER"> F  </i>
   <i type="logical" name="LRPAFORCE"> F  </i>
   <i type="logical" name="LFXC"> F  </i>
   <i type="logical" name="LHARTREE"> T  </i>
   <i type="int" name="IBSE">     0</i>
   <v type="int" name="KPOINT">    -1     0     0     0</v>
   <i type="logical" name="LTCTC"> F  </i>
   <i type="logical" name="LTCTE"> F  </i>
   <i type="logical" name="LTETE"> F  </i>
   <i type="logical" name="LTRIPLET"> F  </i>
   <i type="logical" name="LFXCEPS"> F  </i>
   <i type="logical" name="LFXHEG"> F  </i>
   <i type="int" name="NATURALO">     2</i>
   <i type="logical" name="LHOLEGF"> F  </i>
   <i type="logical" name="L2ORDER"> F  </i>
   <i type="logical" name="LDMP1"> F  </i>
   <i type="logical" name="LMP2LT"> F  </i>
   <i type="logical" name="LSMP2LT"> F  </i>
   <i type="logical" name="LGWLF"> F  </i>
   <i name="ENCUTGW">     -1.60000002</i>
   <i name="ENCUTGWSOFT">     -1.60000002</i>
   <i name="ENCUTLF">     -1.00000000</i>
   <i type="logical" name="LESF_SPLINES"> F  </i>
   <i type="int" name="LMAXMP2">    -1</i>
   <i name="SCISSOR">      0.00000000</i>
   <i type="int" name="NOMEGA">     0</i>
   <i type="int" name="NOMEGAR">     0</i>
   <i type="int" name="NBANDSGW">    -1</i>
   <i type="int" name="NBANDSO">    -1</i>
   <i type="int" name="NBANDSV">    -1</i>
   <i type="int" name="NELMGW">     1</i>
   <i type="int" name="NELMHF">     1</i>
   <i type="int" name="DIM">     3</i>
   <i type="int" name="IESPILON">     4</i>
   <i type="int" name="ANTIRES">     0</i>
   <i name="OMEGAMAX">    -30.00000000</i>
   <i name="OMEGAMIN">    -30.00000000</i>
   <i name="OMEGATL">   -200.00000000</i>
   <i type="int" name="OMEGAGRID">     0</i>
   <i name="CSHIFT">     -0.10000000</i>
   <i type="logical" name="LSELFENERGY"> F  </i>
   <i type="logical" name="LSPECTRAL"> F  </i>
   <i type="logical" name="LSPECTRALGW"> F  </i>
   <i type="logical" name="LSINGLES"> F  </i>
   <i type="logical" name="LFERMIGW"> F  </i>
   <i type="logical" name="ODDONLYGW"> F  </i>
   <i type="logical" name="EVENONLYGW"> F  </i>
   <i type="int" name="NKREDLFX">     1</i>
   <i type="int" name="NKREDLFY">     1</i>
   <i type="int" name="NKREDLFZ">     1</i>
   <i type="int" name="MAXMEM">  2800</i>
   <i type="int" name="TELESCOPE">     0</i>
   <i type="int" name="NTAUPAR">    -1</i>
   <i type="int" name="NOMEGAPAR">    -1</i>
   <i name="DAMP_NEWTON">      0.80000001</i>
   <i name="LAMBDA">      1.00000000</i>
  </separator>
  <separator name="External order field" >
   <i name="OFIELD_KAPPA">      0.00000000</i>
   <v name="OFIELD_K">      0.00000000      0.00000000      0.00000000</v>
   <i name="OFIELD_Q6_NEAR">      0.00000000</i>
   <i name="OFIELD_Q6_FAR">      0.00000000</i>
   <i name="OFIELD_A">      0.00000000</i>
  </separator>
  <separator name="optional k-points parameters" >
   <i type="int" name="KPOINTS_OPT_MODE">     1</i>
   <i type="logical" name="LKPOINTS_OPT"> F  </i>
  </separator>
 </parameters>
 <atominfo>
  <atoms>      18 </atoms>
  <types>       1 </types>
  <array name="atoms" >
   <dimension dim="1">ion</dimension>
   <field type="string">element</field>
   <field type="int">atomtype</field>
   <set>
    <rc><c>C </c><c>   1</c></rc>
    <rc><c>C </c><c>   1</c></rc>
    <rc><c>C </c><c>   1</c></rc>
    <rc><c>C </c><c>   1</c></rc>
    <rc><c>C </c><c>   1</c></rc>
    <rc><c>C </c><c>   1</c></rc>
    <rc><c>C </c><c>   1</c></rc>
    <rc><c>C </c><c>   1</c></rc>
    <rc><c>C </c><c>   1</c></rc>
    <rc><c>C </c><c>   1</c></rc>
    <rc><c>C </c><c>   1</c></rc>
    <rc><c>C </c><c>   1</c></rc>
    <rc><c>C </c><c>   1</c></rc>
    <rc><c>C </c><c>   1</c></rc>
    <rc><c>C </c><c>   1</c></rc>
    <rc><c>C </c><c>   1</c></rc>
    <rc><c>C </c><c>   1</c></rc>
    <rc><c>C </c><c>   1</c></rc>
   </set>
  </array>
  <array name="atomtypes" >
   <dimension dim="1">type</dimension>
   <field type="int">atomspertype</field>
   <field type="string">element</field>
   <field>mass</field>
   <field>valence</field>
   <field type="string">pseudopotential</field>
   <set>
    <rc><c>  18</c><c>C </c><c>     12.01100000</c><c>      4.00000000</c><c>  PAW_PBE C 08Apr2002                   </c></rc>
   </set>
  </array>
 </atominfo>
 <structure name="initialpos" >
  <crystal>
   <varray name="basis" >
    <v>       7.40170591       0.00000000       0.00000000 </v>
    <v>      -3.70085295       6.41006527       0.00000000 </v>
    <v>       0.00000000       0.00000000      20.00000000 </v>
   </varray>
   <i name="volume">    948.90835877 </i>
   <varray name="rec_basis" >
    <v>       0.13510399       0.07800233       0.00000000 </v>
    <v>       0.00000000       0.15600465       0.00000000 </v>
    <v>       0.00000000       0.00000000       0.05000000 </v>
   </varray>
  </crystal>
  <varray name="positions" >
   <v>       0.99921998       0.99843995       0.50000000 </v>
   <v>       0.33411336       0.00156005       0.50000000 </v>
   <v>       0.66666667       0.00000000       0.50000000 </v>
   <v>       0.00000000       0.33333333       0.50000000 </v>
   <v>       0.33333333       0.33333333       0.50000000 </v>
   <v>       0.66666667       0.33333333       0.50000000 </v>
   <v>       0.00000000       0.66666667       0.50000000 </v>
   <v>       0.33333333       0.66666667       0.50000000 </v>
   <v>       0.66666667       0.66666667       0.50000000 </v>
   <v>       0.22222222       0.11111111       0.50000000 </v>
   <v>       0.55555556       0.11111111       0.50000000 </v>
   <v>       0.88888889       0.11111111       0.50000000 </v>
   <v>       0.22222222       0.44444444       0.50000000 </v>
   <v>       0.55555556       0.44444444       0.50000000 </v>
   <v>       0.88888889       0.44444444       0.50000000 </v>
   <v>       0.22222222       0.77777778       0.50000000 </v>
   <v>       0.55555556       0.77777778       0.50000000 </v>
   <v>       0.88888889       0.77777778       0.50000000 </v>
  </varray>
 </structure>
 <calculation>
  <scstep>
   <time name="dav">    5.94    6.17</time>
   <time name="total">    6.02    6.26</time>
   <energy>
    <i name="alphaZ">     28.04858418 </i>
    <i name="ewald">  11638.87561085 </i>
    <i name="hartreedc"> -13553.18119129 </i>
    <i name="XCdc">    237.17774689 </i>
    <i name="pawpsdc">   1953.39683484 </i>
    <i name="pawaedc">  -1963.64613940 </i>
    <i name="eentropy">     -0.00821360 </i>
    <i name="bandstr">   -257.76362243 </i>
    <i name="atom">   2648.70517965 </i>
    <i name="e_fr_energy">    731.60478969 </i>
    <i name="e_wo_entrp">    731.61300329 </i>
    <i name="e_0_energy">    731.60889649 </i>
   </energy>
  </scstep>
  <scstep>
   <time name="dav">    7.92    8.23</time>
   <time name="total">    7.93    8.23</time>
   <energy>
    <i name="e_fr_energy">    -23.92183588 </i>
    <i name="e_wo_entrp">    -23.92158402 </i>
    <i name="e_0_energy">    -23.92170995 </i>
   </energy>
  </scstep>
  <scstep>
   <time name="dav">    6.41    6.66</time>
   <time name="total">    6.42    6.66</time>
   <energy>
    <i name="e_fr_energy">   -172.27623646 </i>
    <i name="e_wo_entrp">   -172.27488336 </i>
    <i name="e_0_energy">   -172.27555991 </i>
   </energy>
  </scstep>
  <scstep>
   <time name="dav">    6.35    5.42</time>
   <time name="total">    6.35    5.42</time>
   <energy>
    <i name="e_fr_energy">   -177.34747578 </i>
    <i name="e_wo_entrp">   -177.34542840 </i>
    <i name="e_0_energy">   -177.34645209 </i>
   </energy>
  </scstep>
  <scstep>
   <time name="dav">    7.23    7.50</time>
   <time name="total">    7.49    7.78</time>
   <energy>
    <i name="e_fr_energy">   -177.48439194 </i>
    <i name="e_wo_entrp">   -177.48234626 </i>
    <i name="e_0_energy">   -177.48336910 </i>
   </energy>
  </scstep>
  <scstep>
   <time name="dav">    5.94    6.16</time>
   <time name="total">    6.29    6.53</time>
   <energy>
    <i name="e_fr_energy">   -169.31668497 </i>
    <i name="e_wo_entrp">   -169.31455428 </i>
    <i name="e_0_energy">   -169.31561963 </i>
   </energy>
  </scstep>
  <scstep>
   <time name="dav">    5.96    6.19</time>
   <time name="total">    6.30    6.54</time>
   <energy>
    <i name="e_fr_energy">   -166.14870825 </i>
    <i name="e_wo_entrp">   -166.14655002 </i>
    <i name="e_0_energy">   -166.14762913 </i>
   </energy>
  </scstep>
  <scstep>
   <time name="dav">    6.20    6.44</time>
   <time name="total">    6.55    6.80</time>
   <energy>
    <i name="e_fr_energy">   -166.08578893 </i>
    <i name="e_wo_entrp">   -166.08364674 </i>
    <i name="e_0_energy">   -166.08471783 </i>
   </energy>
  </scstep>
  <scstep>
   <time name="dav">    6.61    5.66</time>
   <time name="total">    6.96    6.02</time>
   <energy>
    <i name="e_fr_energy">   -166.07289884 </i>
    <i name="e_wo_entrp">   -166.07075133 </i>
    <i name="e_0_energy">   -166.07182508 </i>
   </energy>
  </scstep>
  <scstep>
   <time name="dav">    5.84    6.06</time>
   <time name="total">    6.19    6.42</time>
   <energy>
    <i name="e_fr_energy">   -166.05429252 </i>
    <i name="e_wo_entrp">   -166.05214061 </i>
    <i name="e_0_energy">   -166.05321656 </i>
   </energy>
  </scstep>
  <scstep>
   <time name="dav">    5.87    6.10</time>
   <time name="total">    6.22    6.46</time>
   <energy>
    <i name="e_fr_energy">   -166.05781389 </i>
    <i name="e_wo_entrp">   -166.05566563 </i>
    <i name="e_0_energy">   -166.05673976 </i>
   </energy>
  </scstep>
  <scstep>
   <time name="dav">    5.70    5.93</time>
   <time name="total">    6.06    6.29</time>
   <energy>
    <i name="e_fr_energy">   -166.06251693 </i>
    <i name="e_wo_entrp">   -166.06036938 </i>
    <i name="e_0_energy">   -166.06144315 </i>
   </energy>
  </scstep>
  <scstep>
   <time name="dav">    5.86    6.08</time>
   <time name="total">    6.22    6.46</time>
   <energy>
    <i name="e_fr_energy">   -166.06673084 </i>
    <i name="e_wo_entrp">   -166.06458191 </i>
    <i name="e_0_energy">   -166.06565638 </i>
   </energy>
  </scstep>
  <scstep>
   <time name="dav">    5.68    4.71</time>
   <time name="total">    6.03    5.08</time>
   <energy>
    <i name="e_fr_energy">   -166.07058164 </i>
    <i name="e_wo_entrp">   -166.06843236 </i>
    <i name="e_0_energy">   -166.06950700 </i>
   </energy>
  </scstep>
  <scstep>
   <time name="dav">    5.88    6.09</time>
   <time name="total">    6.22    6.45</time>
   <energy>
    <i name="e_fr_energy">   -166.07170749 </i>
    <i name="e_wo_entrp">   -166.06955836 </i>
    <i name="e_0_energy">   -166.07063292 </i>
   </energy>
  </scstep>
  <scstep>
   <time name="dav">    5.98    6.21</time>
   <time name="total">    6.33    6.57</time>
   <energy>
    <i name="e_fr_energy">   -166.07188330 </i>
    <i name="e_wo_entrp">   -166.06973433 </i>
    <i name="e_0_energy">   -166.07080882 </i>
   </energy>
  </scstep>
  <scstep>
   <time name="dav">    5.67    5.89</time>
   <time name="total">    6.02    6.26</time>
   <energy>
    <i name="e_fr_energy">   -166.07208168 </i>
    <i name="e_wo_entrp">   -166.06993287 </i>
    <i name="e_0_energy">   -166.07100727 </i>
   </energy>
  </scstep>
  <scstep>
   <time name="dav">    5.08    5.28</time>
   <time name="total">    5.44    5.66</time>
   <energy>
    <i name="e_fr_energy">   -166.07212533 </i>
    <i name="e_wo_entrp">   -166.06997639 </i>
    <i name="e_0_energy">   -166.07105086 </i>
   </energy>
  </scstep>
  <scstep>
   <time name="dav">    4.99    3.96</time>
   <time name="total">    5.34    4.32</time>
   <energy>
    <i name="e_fr_energy">   -166.07215962 </i>
    <i name="e_wo_entrp">   -166.07001063 </i>
    <i name="e_0_energy">   -166.07108513 </i>
   </energy>
  </scstep>
  <scstep>
   <time name="dav">    4.77    4.95</time>
   <time name="total">    5.12    5.32</time>
   <energy>
    <i name="e_fr_energy">   -166.07218321 </i>
    <i name="e_wo_entrp">   -166.07003426 </i>
    <i name="e_0_energy">   -166.07110873 </i>
   </energy>
  </scstep>
  <scstep>
   <time name="dav">    3.93    4.08</time>
   <time name="total">    4.27    4.44</time>
   <energy>
    <i name="e_fr_energy">   -166.07219251 </i>
    <i name="e_wo_entrp">   -166.07004356 </i>
    <i name="e_0_energy">   -166.07111804 </i>
   </energy>
  </scstep>
  <scstep>
   <time name="dav">    3.90    4.05</time>
   <time name="total">    4.25    4.41</time>
   <energy>
    <i name="e_fr_energy">   -166.07219513 </i>
    <i name="e_wo_entrp">   -166.07004620 </i>
    <i name="e_0_energy">   -166.07112067 </i>
   </energy>
  </scstep>
  <scstep>
   <time name="dav">    4.16    4.32</time>
   <time name="total">    4.25    4.41</time>
   <energy>
    <i name="alphaZ">     28.04858418 </i>
    <i name="ewald">  11638.87561085 </i>
    <i name="hartreedc"> -13861.52481854 </i>
    <i name="XCdc">    247.81452485 </i>
    <i name="pawpsdc">   7452.99452202 </i>
    <i name="pawaedc">  -7465.25796757 </i>
    <i name="eentropy">     -0.00214894 </i>
    <i name="bandstr">   -855.72568187 </i>
    <i name="atom">   2648.70517965 </i>
    <i name="e_fr_energy">   -166.07219537 </i>
    <i name="e_wo_entrp">   -166.07004643 </i>
    <i name="e_0_energy">   -166.07112090 </i>
   </energy>
  </scstep>
  <structure>
   <crystal>
    <varray name="basis" >
     <v>       7.40170591       0.00000000       0.00000000 </v>
     <v>      -3.70085295       6.41006527       0.00000000 </v>
     <v>       0.00000000       0.00000000      20.00000000 </v>
    </varray>
    <i name="volume">    948.90835877 </i>
    <varray name="rec_basis" >
     <v>       0.13510399       0.07800233       0.00000000 </v>
     <v>       0.00000000       0.15600465       0.00000000 </v>
     <v>       0.00000000       0.00000000       0.05000000 </v>
    </varray>
   </crystal>
   <varray name="positions" >
    <v>       0.99921998       0.99843995       0.50000000 </v>
    <v>       0.33411336       0.00156005       0.50000000 </v>
    <v>       0.66666667       0.00000000       0.50000000 </v>
    <v>       0.00000000       0.33333333       0.50000000 </v>
    <v>       0.33333333       0.33333333       0.50000000 </v>
    <v>       0.66666667       0.33333333       0.50000000 </v>
    <v>       0.00000000       0.66666667       0.50000000 </v>
    <v>       0.33333333       0.66666667       0.50000000 </v>
    <v>       0.66666667       0.66666667       0.50000000 </v>
    <v>       0.22222222       0.11111111       0.50000000 </v>
    <v>       0.55555556       0.11111111       0.50000000 </v>
    <v>       0.88888889       0.11111111       0.50000000 </v>
    <v>       0.22222222       0.44444444       0.50000000 </v>
    <v>       0.55555556       0.44444444       0.50000000 </v>
    <v>       0.88888889       0.44444444       0.50000000 </v>
    <v>       0.22222222       0.77777778       0.50000000 </v>
    <v>       0.55555556       0.77777778       0.50000000 </v>
    <v>       0.88888889       0.77777778       0.50000000 </v>
   </varray>
  </structure>
  <varray name="forces" >
   <v>      -0.01307141       0.58071708       0.00000000 </v>
   <v>      -0.01412456      -0.56557023      -0.00000000 </v>
   <v>       0.02718584       0.00037175       0.00000000 </v>
   <v>       0.01849657      -0.00114510      -0.00000000 </v>
   <v>      -0.03741757       0.00032580       0.00000000 </v>
   <v>       0.01891292       0.00098104       0.00000000 </v>
   <v>       0.09178731      -0.00068650       0.00000000 </v>
   <v>      -0.04522766       0.00048155       0.00000000 </v>
   <v>      -0.04656514      -0.00164547       0.00000000 </v>
   <v>      -0.10916912       0.00114951      -0.00000000 </v>
   <v>       0.05687571       0.16527720       0.00000000 </v>
   <v>       0.05230082      -0.16360219       0.00000000 </v>
   <v>      -0.01034136       0.02499218       0.00000000 </v>
   <v>      -0.01054510      -0.02413039       0.00000000 </v>
   <v>       0.02089455       0.00036459       0.00000000 </v>
   <v>      -0.02338130       0.21697550      -0.00000000 </v>
   <v>       0.04624029      -0.00044561       0.00000000 </v>
   <v>      -0.02285079      -0.23441072       0.00000000 </v>
  </varray>
  <varray name="stress" >
   <v>      -0.14459660       0.00000119       0.00000000 </v>
   <v>       0.00000118      -0.13418018       0.00000000 </v>
   <v>       0.00000000       0.00000000      -0.56130393 </v>
  </varray>
  <energy>
   <i name="e_fr_energy">   -166.07219537 </i>
   <i name="e_wo_entrp">   -166.07004643 </i>
   <i name="e_0_energy">   -166.07112090 </i>
  </energy>
  <time name="totalsc">  143.51  144.22</time>
  <eigenvalues>
   <array>
    <dimension dim="1">band</dimension>
    <dimension dim="2">kpoint</dimension>
    <dimension dim="3">spin</dimension>
    <field>eigene</field>
    <field>occ</field>
    <set>
     <set comment="spin 1">
      <set comment="kpoint 1">
       <r>  -22.2560    1.0000 </r>
       <r>  -19.7001    1.0000 </r>
       <r>  -19.6844    1.0000 </r>
       <r>  -19.6734    1.0000 </r>
       <r>  -19.6733    1.0000 </r>
       <r>  -19.6623    1.0000 </r>
       <r>  -19.6471    1.0000 </r>
       <r>  -15.3622    1.0000 </r>
       <r>  -15.3455    1.0000 </r>
       <r>  -15.3357    1.0000 </r>
       <r>  -15.3200    1.0000 </r>
       <r>  -13.2939    1.0000 </r>
       <r>  -13.2856    1.0000 </r>
       <r>  -12.4006    1.0000 </r>
       <r>  -12.3810    1.0000 </r>
       <r>  -12.3748    1.0000 </r>
       <r>  -12.3747    1.0000 </r>
       <r>  -12.3683    1.0000 </r>
       <r>  -12.3482    1.0000 </r>
       <r>  -10.3599    1.0000 </r>
       <r>   -8.5476    1.0000 </r>
       <r>   -8.5437    1.0000 </r>
       <r>   -8.5236    1.0000 </r>
       <r>   -8.5235    1.0000 </r>
       <r>   -8.5029    1.0000 </r>
       <r>   -8.4995    1.0000 </r>
       <r>   -7.3932    1.0000 </r>
       <r>   -7.3808    1.0000 </r>
       <r>   -7.3709    1.0000 </r>
       <r>   -7.3709    1.0000 </r>
       <r>   -7.3610    1.0000 </r>
       <r>   -7.3490    1.0000 </r>
       <r>   -5.7844    1.0000 </r>
       <r>   -5.7839    1.0000 </r>
       <r>   -2.7706    0.6675 </r>
       <r>   -2.7659    0.6187 </r>
       <r>   -2.7443    0.3787 </r>
       <r>   -2.7402    0.3351 </r>
       <r>    0.5196    0.0000 </r>
       <r>    1.3120    0.0000 </r>
       <r>    1.6356    0.0000 </r>
       <r>    2.1166    0.0000 </r>
       <r>    2.1294    0.0000 </r>
       <r>    2.1443    0.0000 </r>
       <r>    2.1443    0.0000 </r>
       <r>    2.1596    0.0000 </r>
      </set>
      <set comment="kpoint 2">
       <r>  -22.2024    1.0000 </r>
       <r>  -20.3492    1.0000 </r>
       <r>  -19.9961    1.0000 </r>
       <r>  -19.9727    1.0000 </r>
       <r>  -19.2744    1.0000 </r>
       <r>  -19.2505    1.0000 </r>
       <r>  -18.9060    1.0000 </r>
       <r>  -16.0065    1.0000 </r>
       <r>  -15.9844    1.0000 </r>
       <r>  -14.9171    1.0000 </r>
       <r>  -14.9095    1.0000 </r>
       <r>  -13.5977    1.0000 </r>
       <r>  -12.9785    1.0000 </r>
       <r>  -12.9678    1.0000 </r>
       <r>  -12.9580    1.0000 </r>
       <r>  -12.9487    1.0000 </r>
       <r>  -11.7430    1.0000 </r>
       <r>  -11.7272    1.0000 </r>
       <r>  -11.1176    1.0000 </r>
       <r>  -10.2960    1.0000 </r>
       <r>   -8.8716    1.0000 </r>
       <r>   -8.8578    1.0000 </r>
       <r>   -8.8280    1.0000 </r>
       <r>   -8.5158    1.0000 </r>
       <r>   -8.5021    1.0000 </r>
       <r>   -8.1312    1.0000 </r>
       <r>   -8.1272    1.0000 </r>
       <r>   -7.7237    1.0000 </r>
       <r>   -7.7035    1.0000 </r>
       <r>   -6.9324    1.0000 </r>
       <r>   -6.9132    1.0000 </r>
       <r>   -6.5569    1.0000 </r>
       <r>   -6.0044    1.0000 </r>
       <r>   -5.8997    1.0000 </r>
       <r>   -3.5310    1.0000 </r>
       <r>   -3.5224    1.0000 </r>
       <r>   -2.0056    0.0000 </r>
       <r>   -2.0035    0.0000 </r>
       <r>    0.5923    0.0000 </r>
       <r>    0.8750    0.0000 </r>
       <r>    1.3856    0.0000 </r>
       <r>    1.4621    0.0000 </r>
       <r>    1.4858    0.0000 </r>
       <r>    1.7101    0.0000 </r>
       <r>    2.6300    0.0000 </r>
       <r>    2.7475    0.0000 </r>
      </set>
      <set comment="kpoint 3">
       <r>  -22.2024    1.0000 </r>
       <r>  -20.3494    1.0000 </r>
       <r>  -19.9865    1.0000 </r>
       <r>  -19.9823    1.0000 </r>
       <r>  -19.2650    1.0000 </r>
       <r>  -19.2599    1.0000 </r>
       <r>  -18.9059    1.0000 </r>
       <r>  -16.0024    1.0000 </r>
       <r>  -15.9885    1.0000 </r>
       <r>  -14.9206    1.0000 </r>
       <r>  -14.9061    1.0000 </r>
       <r>  -13.5976    1.0000 </r>
       <r>  -12.9802    1.0000 </r>
       <r>  -12.9718    1.0000 </r>
       <r>  -12.9505    1.0000 </r>
       <r>  -12.9503    1.0000 </r>
       <r>  -11.7427    1.0000 </r>
       <r>  -11.7279    1.0000 </r>
       <r>  -11.1173    1.0000 </r>
       <r>  -10.2960    1.0000 </r>
       <r>   -8.8762    1.0000 </r>
       <r>   -8.8536    1.0000 </r>
       <r>   -8.8268    1.0000 </r>
       <r>   -8.5226    1.0000 </r>
       <r>   -8.4959    1.0000 </r>
       <r>   -8.1312    1.0000 </r>
       <r>   -8.1273    1.0000 </r>
       <r>   -7.7166    1.0000 </r>
       <r>   -7.7105    1.0000 </r>
       <r>   -6.9258    1.0000 </r>
       <r>   -6.9197    1.0000 </r>
       <r>   -6.5568    1.0000 </r>
       <r>   -6.0041    1.0000 </r>
       <r>   -5.9001    1.0000 </r>
       <r>   -3.5293    1.0000 </r>
       <r>   -3.5241    1.0000 </r>
       <r>   -2.0062    0.0000 </r>
       <r>   -2.0029    0.0000 </r>
       <r>    0.5923    0.0000 </r>
       <r>    0.8750    0.0000 </r>
       <r>    1.3856    0.0000 </r>
       <r>    1.4721    0.0000 </r>
       <r>    1.4758    0.0000 </r>
       <r>    1.7101    0.0000 </r>
       <r>    2.6300    0.0000 </r>
       <r>    2.7584    0.0000 </r>
      </set>
      <set comment="kpoint 4">
       <r>  -22.2024    1.0000 </r>
       <r>  -20.3492    1.0000 </r>
       <r>  -19.9963    1.0000 </r>
       <r>  -19.9725    1.0000 </r>
       <r>  -19.2743    1.0000 </r>
       <r>  -19.2506    1.0000 </r>
       <r>  -18.9060    1.0000 </r>
       <r>  -16.0066    1.0000 </r>
       <r>  -15.9844    1.0000 </r>
       <r>  -14.9172    1.0000 </r>
       <r>  -14.9094    1.0000 </r>
       <r>  -13.5977    1.0000 </r>
       <r>  -12.9787    1.0000 </r>
       <r>  -12.9677    1.0000 </r>
       <r>  -12.9577    1.0000 </r>
       <r>  -12.9490    1.0000 </r>
       <r>  -11.7429    1.0000 </r>
       <r>  -11.7272    1.0000 </r>
       <r>  -11.1176    1.0000 </r>
       <r>  -10.2960    1.0000 </r>
       <r>   -8.8718    1.0000 </r>
       <r>   -8.8577    1.0000 </r>
       <r>   -8.8279    1.0000 </r>
       <r>   -8.5155    1.0000 </r>
       <r>   -8.5023    1.0000 </r>
       <r>   -8.1312    1.0000 </r>
       <r>   -8.1272    1.0000 </r>
       <r>   -7.7237    1.0000 </r>
       <r>   -7.7034    1.0000 </r>
       <r>   -6.9323    1.0000 </r>
       <r>   -6.9133    1.0000 </r>
       <r>   -6.5569    1.0000 </r>
       <r>   -6.0044    1.0000 </r>
       <r>   -5.8997    1.0000 </r>
       <r>   -3.5310    1.0000 </r>
       <r>   -3.5224    1.0000 </r>
       <r>   -2.0056    0.0000 </r>
       <r>   -2.0035    0.0000 </r>
       <r>    0.5923    0.0000 </r>
       <r>    0.8750    0.0000 </r>
       <r>    1.3856    0.0000 </r>
       <r>    1.4623    0.0000 </r>
       <r>    1.4856    0.0000 </r>
       <r>    1.7101    0.0000 </r>
       <r>    2.6300    0.0000 </r>
       <r>    2.7476    0.0000 </r>
      </set>
      <set comment="kpoint 5">
       <r>  -22.0419    1.0000 </r>
       <r>  -20.9267    1.0000 </r>
       <r>  -20.2045    1.0000 </r>
       <r>  -20.1811    1.0000 </r>
       <r>  -18.7675    1.0000 </r>
       <r>  -18.7434    1.0000 </r>
       <r>  -18.0630    1.0000 </r>
       <r>  -16.7571    1.0000 </r>
       <r>  -16.7333    1.0000 </r>
       <r>  -14.7544    1.0000 </r>
       <r>  -14.6277    1.0000 </r>
       <r>  -14.6201    1.0000 </r>
       <r>  -13.5056    1.0000 </r>
       <r>  -13.4931    1.0000 </r>
       <r>  -12.1918    1.0000 </r>
       <r>  -12.1761    1.0000 </r>
       <r>  -11.1067    1.0000 </r>
       <r>  -11.0894    1.0000 </r>
       <r>  -10.1047    1.0000 </r>
       <r>   -9.8608    1.0000 </r>
       <r>   -9.5027    1.0000 </r>
       <r>   -9.4873    1.0000 </r>
       <r>   -9.0385    1.0000 </r>
       <r>   -8.7918    1.0000 </r>
       <r>   -8.7675    1.0000 </r>
       <r>   -8.7537    1.0000 </r>
       <r>   -7.9550    1.0000 </r>
       <r>   -7.9345    1.0000 </r>
       <r>   -7.6713    1.0000 </r>
       <r>   -6.6219    1.0000 </r>
       <r>   -6.3867    1.0000 </r>
       <r>   -6.3685    1.0000 </r>
       <r>   -6.2163    1.0000 </r>
       <r>   -5.7649    1.0000 </r>
       <r>   -4.3050    1.0000 </r>
       <r>   -4.2929    1.0000 </r>
       <r>   -1.2861    0.0000 </r>
       <r>   -1.2794    0.0000 </r>
       <r>   -0.2377    0.0000 </r>
       <r>    0.7778    0.0000 </r>
       <r>    0.7983    0.0000 </r>
       <r>    0.8102    0.0000 </r>
       <r>    1.6063    0.0000 </r>
       <r>    1.9335    0.0000 </r>
       <r>    2.3341    0.0000 </r>
       <r>    2.8514    0.0000 </r>
      </set>
      <set comment="kpoint 6">
       <r>  -22.0419    1.0000 </r>
       <r>  -20.9268    1.0000 </r>
       <r>  -20.1947    1.0000 </r>
       <r>  -20.1909    1.0000 </r>
       <r>  -18.7584    1.0000 </r>
       <r>  -18.7524    1.0000 </r>
       <r>  -18.0630    1.0000 </r>
       <r>  -16.7507    1.0000 </r>
       <r>  -16.7396    1.0000 </r>
       <r>  -14.7551    1.0000 </r>
       <r>  -14.6296    1.0000 </r>
       <r>  -14.6175    1.0000 </r>
       <r>  -13.5051    1.0000 </r>
       <r>  -13.4938    1.0000 </r>
       <r>  -12.1852    1.0000 </r>
       <r>  -12.1822    1.0000 </r>
       <r>  -11.1065    1.0000 </r>
       <r>  -11.0899    1.0000 </r>
       <r>  -10.1047    1.0000 </r>
       <r>   -9.8610    1.0000 </r>
       <r>   -9.5043    1.0000 </r>
       <r>   -9.4852    1.0000 </r>
       <r>   -9.0382    1.0000 </r>
       <r>   -8.7918    1.0000 </r>
       <r>   -8.7734    1.0000 </r>
       <r>   -8.7481    1.0000 </r>
       <r>   -7.9478    1.0000 </r>
       <r>   -7.9417    1.0000 </r>
       <r>   -7.6711    1.0000 </r>
       <r>   -6.6218    1.0000 </r>
       <r>   -6.3807    1.0000 </r>
       <r>   -6.3745    1.0000 </r>
       <r>   -6.2168    1.0000 </r>
       <r>   -5.7650    1.0000 </r>
       <r>   -4.3017    1.0000 </r>
       <r>   -4.2960    1.0000 </r>
       <r>   -1.2839    0.0000 </r>
       <r>   -1.2819    0.0000 </r>
       <r>   -0.2375    0.0000 </r>
       <r>    0.7868    0.0000 </r>
       <r>    0.7892    0.0000 </r>
       <r>    0.8102    0.0000 </r>
       <r>    1.6063    0.0000 </r>
       <r>    1.9335    0.0000 </r>
       <r>    2.3341    0.0000 </r>
       <r>    2.8513    0.0000 </r>
      </set>
      <set comment="kpoint 7">
       <r>  -22.0419    1.0000 </r>
       <r>  -20.9267    1.0000 </r>
       <r>  -20.2046    1.0000 </r>
       <r>  -20.1810    1.0000 </r>
       <r>  -18.7674    1.0000 </r>
       <r>  -18.7434    1.0000 </r>
       <r>  -18.0630    1.0000 </r>
       <r>  -16.7572    1.0000 </r>
       <r>  -16.7332    1.0000 </r>
       <r>  -14.7544    1.0000 </r>
       <r>  -14.6279    1.0000 </r>
       <r>  -14.6199    1.0000 </r>
       <r>  -13.5055    1.0000 </r>
       <r>  -13.4931    1.0000 </r>
       <r>  -12.1918    1.0000 </r>
       <r>  -12.1762    1.0000 </r>
       <r>  -11.1067    1.0000 </r>
       <r>  -11.0894    1.0000 </r>
       <r>  -10.1047    1.0000 </r>
       <r>   -9.8608    1.0000 </r>
       <r>   -9.5030    1.0000 </r>
       <r>   -9.4870    1.0000 </r>
       <r>   -9.0385    1.0000 </r>
       <r>   -8.7918    1.0000 </r>
       <r>   -8.7670    1.0000 </r>
       <r>   -8.7542    1.0000 </r>
       <r>   -7.9551    1.0000 </r>
       <r>   -7.9345    1.0000 </r>
       <r>   -7.6713    1.0000 </r>
       <r>   -6.6219    1.0000 </r>
       <r>   -6.3866    1.0000 </r>
       <r>   -6.3686    1.0000 </r>
       <r>   -6.2163    1.0000 </r>
       <r>   -5.7649    1.0000 </r>
       <r>   -4.3050    1.0000 </r>
       <r>   -4.2929    1.0000 </r>
       <r>   -1.2861    0.0000 </r>
       <r>   -1.2794    0.0000 </r>
       <r>   -0.2377    0.0000 </r>
       <r>    0.7780    0.0000 </r>
       <r>    0.7980    0.0000 </r>
       <r>    0.8102    0.0000 </r>
       <r>    1.6063    0.0000 </r>
       <r>    1.9335    0.0000 </r>
       <r>    2.3341    0.0000 </r>
       <r>    2.8514    0.0000 </r>
      </set>
      <set comment="kpoint 8">
       <r>  -21.7751    1.0000 </r>
       <r>  -21.4027    1.0000 </r>
       <r>  -20.3090    1.0000 </r>
       <r>  -20.2857    1.0000 </r>
       <r>  -18.1707    1.0000 </r>
       <r>  -18.1462    1.0000 </r>
       <r>  -17.4934    1.0000 </r>
       <r>  -17.4695    1.0000 </r>
       <r>  -17.2286    1.0000 </r>
       <r>  -15.7457    1.0000 </r>
       <r>  -14.3272    1.0000 </r>
       <r>  -14.3176    1.0000 </r>
       <r>  -13.9565    1.0000 </r>
       <r>  -13.9449    1.0000 </r>
       <r>  -11.2677    1.0000 </r>
       <r>  -11.2504    1.0000 </r>
       <r>  -10.6078    1.0000 </r>
       <r>  -10.5879    1.0000 </r>
       <r>  -10.3352    1.0000 </r>
       <r>  -10.3191    1.0000 </r>
       <r>   -9.7878    1.0000 </r>
       <r>   -9.3483    1.0000 </r>
       <r>   -9.1475    1.0000 </r>
       <r>   -9.0959    1.0000 </r>
       <r>   -9.0812    1.0000 </r>
       <r>   -8.6457    1.0000 </r>
       <r>   -8.0715    1.0000 </r>
       <r>   -8.0509    1.0000 </r>
       <r>   -7.5388    1.0000 </r>
       <r>   -7.1680    1.0000 </r>
       <r>   -6.6636    1.0000 </r>
       <r>   -5.7557    1.0000 </r>
       <r>   -5.7388    1.0000 </r>
       <r>   -5.1984    1.0000 </r>
       <r>   -5.0542    1.0000 </r>
       <r>   -5.0397    1.0000 </r>
       <r>   -0.9700    0.0000 </r>
       <r>   -0.5906    0.0000 </r>
       <r>   -0.5791    0.0000 </r>
       <r>    0.0940    0.0000 </r>
       <r>    0.1107    0.0000 </r>
       <r>    1.1735    0.0000 </r>
       <r>    1.6817    0.0000 </r>
       <r>    1.9737    0.0000 </r>
       <r>    2.3059    0.0000 </r>
       <r>    2.4867    0.0000 </r>
      </set>
      <set comment="kpoint 9">
       <r>  -21.7751    1.0000 </r>
       <r>  -21.4029    1.0000 </r>
       <r>  -20.2992    1.0000 </r>
       <r>  -20.2955    1.0000 </r>
       <r>  -18.1620    1.0000 </r>
       <r>  -18.1548    1.0000 </r>
       <r>  -17.4862    1.0000 </r>
       <r>  -17.4774    1.0000 </r>
       <r>  -17.2279    1.0000 </r>
       <r>  -15.7458    1.0000 </r>
       <r>  -14.3278    1.0000 </r>
       <r>  -14.3168    1.0000 </r>
       <r>  -13.9564    1.0000 </r>
       <r>  -13.9455    1.0000 </r>
       <r>  -11.2631    1.0000 </r>
       <r>  -11.2542    1.0000 </r>
       <r>  -10.6067    1.0000 </r>
       <r>  -10.5884    1.0000 </r>
       <r>  -10.3348    1.0000 </r>
       <r>  -10.3207    1.0000 </r>
       <r>   -9.7878    1.0000 </r>
       <r>   -9.3484    1.0000 </r>
       <r>   -9.1448    1.0000 </r>
       <r>   -9.1020    1.0000 </r>
       <r>   -9.0788    1.0000 </r>
       <r>   -8.6444    1.0000 </r>
       <r>   -8.0642    1.0000 </r>
       <r>   -8.0582    1.0000 </r>
       <r>   -7.5376    1.0000 </r>
       <r>   -7.1686    1.0000 </r>
       <r>   -6.6643    1.0000 </r>
       <r>   -5.7503    1.0000 </r>
       <r>   -5.7442    1.0000 </r>
       <r>   -5.1991    1.0000 </r>
       <r>   -5.0495    1.0000 </r>
       <r>   -5.0435    1.0000 </r>
       <r>   -0.9711    0.0000 </r>
       <r>   -0.5849    0.0000 </r>
       <r>   -0.5838    0.0000 </r>
       <r>    0.1018    0.0000 </r>
       <r>    0.1028    0.0000 </r>
       <r>    1.1735    0.0000 </r>
       <r>    1.6817    0.0000 </r>
       <r>    1.9737    0.0000 </r>
       <r>    2.3059    0.0000 </r>
       <r>    2.4867    0.0000 </r>
      </set>
      <set comment="kpoint 10">
       <r>  -21.7751    1.0000 </r>
       <r>  -21.4027    1.0000 </r>
       <r>  -20.3091    1.0000 </r>
       <r>  -20.2856    1.0000 </r>
       <r>  -18.1704    1.0000 </r>
       <r>  -18.1465    1.0000 </r>
       <r>  -17.4937    1.0000 </r>
       <r>  -17.4692    1.0000 </r>
       <r>  -17.2286    1.0000 </r>
       <r>  -15.7457    1.0000 </r>
       <r>  -14.3276    1.0000 </r>
       <r>  -14.3173    1.0000 </r>
       <r>  -13.9563    1.0000 </r>
       <r>  -13.9451    1.0000 </r>
       <r>  -11.2675    1.0000 </r>
       <r>  -11.2506    1.0000 </r>
       <r>  -10.6073    1.0000 </r>
       <r>  -10.5884    1.0000 </r>
       <r>  -10.3360    1.0000 </r>
       <r>  -10.3183    1.0000 </r>
       <r>   -9.7878    1.0000 </r>
       <r>   -9.3483    1.0000 </r>
       <r>   -9.1480    1.0000 </r>
       <r>   -9.0932    1.0000 </r>
       <r>   -9.0835    1.0000 </r>
       <r>   -8.6457    1.0000 </r>
       <r>   -8.0716    1.0000 </r>
       <r>   -8.0508    1.0000 </r>
       <r>   -7.5388    1.0000 </r>
       <r>   -7.1680    1.0000 </r>
       <r>   -6.6636    1.0000 </r>
       <r>   -5.7555    1.0000 </r>
       <r>   -5.7390    1.0000 </r>
       <r>   -5.1984    1.0000 </r>
       <r>   -5.0544    1.0000 </r>
       <r>   -5.0394    1.0000 </r>
       <r>   -0.9700    0.0000 </r>
       <r>   -0.5909    0.0000 </r>
       <r>   -0.5789    0.0000 </r>
       <r>    0.0944    0.0000 </r>
       <r>    0.1103    0.0000 </r>
       <r>    1.1735    0.0000 </r>
       <r>    1.6817    0.0000 </r>
       <r>    1.9737    0.0000 </r>
       <r>    2.3059    0.0000 </r>
       <r>    2.4867    0.0000 </r>
      </set>
      <set comment="kpoint 11">
       <r>  -22.0954    1.0000 </r>
       <r>  -20.6169    1.0000 </r>
       <r>  -20.6054    1.0000 </r>
       <r>  -19.5272    1.0000 </r>
       <r>  -19.5118    1.0000 </r>
       <r>  -18.4609    1.0000 </r>
       <r>  -18.4490    1.0000 </r>
       <r>  -16.7788    1.0000 </r>
       <r>  -16.1618    1.0000 </r>
       <r>  -15.2404    1.0000 </r>
       <r>  -14.2582    1.0000 </r>
       <r>  -14.1661    1.0000 </r>
       <r>  -14.1479    1.0000 </r>
       <r>  -12.6047    1.0000 </r>
       <r>  -12.3150    1.0000 </r>
       <r>  -12.3038    1.0000 </r>
       <r>  -12.2668    1.0000 </r>
       <r>  -10.4972    1.0000 </r>
       <r>  -10.4760    1.0000 </r>
       <r>  -10.1684    1.0000 </r>
       <r>   -9.1876    1.0000 </r>
       <r>   -9.1692    1.0000 </r>
       <r>   -9.1286    1.0000 </r>
       <r>   -9.1146    1.0000 </r>
       <r>   -8.4306    1.0000 </r>
       <r>   -8.4216    1.0000 </r>
       <r>   -8.0841    1.0000 </r>
       <r>   -8.0648    1.0000 </r>
       <r>   -7.1979    1.0000 </r>
       <r>   -7.1839    1.0000 </r>
       <r>   -6.4078    1.0000 </r>
       <r>   -6.1315    1.0000 </r>
       <r>   -6.1087    1.0000 </r>
       <r>   -6.1002    1.0000 </r>
       <r>   -4.2578    1.0000 </r>
       <r>   -3.8994    1.0000 </r>
       <r>   -1.7104    0.0000 </r>
       <r>   -1.2653    0.0000 </r>
       <r>    0.2676    0.0000 </r>
       <r>    0.2790    0.0000 </r>
       <r>    0.7376    0.0000 </r>
       <r>    1.5328    0.0000 </r>
       <r>    1.8591    0.0000 </r>
       <r>    2.0028    0.0000 </r>
       <r>    2.0211    0.0000 </r>
       <r>    2.7776    0.0000 </r>
      </set>
      <set comment="kpoint 12">
       <r>  -22.0954    1.0000 </r>
       <r>  -20.6168    1.0000 </r>
       <r>  -20.6055    1.0000 </r>
       <r>  -19.5272    1.0000 </r>
       <r>  -19.5117    1.0000 </r>
       <r>  -18.4608    1.0000 </r>
       <r>  -18.4491    1.0000 </r>
       <r>  -16.7788    1.0000 </r>
       <r>  -16.1618    1.0000 </r>
       <r>  -15.2404    1.0000 </r>
       <r>  -14.2583    1.0000 </r>
       <r>  -14.1651    1.0000 </r>
       <r>  -14.1488    1.0000 </r>
       <r>  -12.6047    1.0000 </r>
       <r>  -12.3153    1.0000 </r>
       <r>  -12.3035    1.0000 </r>
       <r>  -12.2668    1.0000 </r>
       <r>  -10.4971    1.0000 </r>
       <r>  -10.4760    1.0000 </r>
       <r>  -10.1684    1.0000 </r>
       <r>   -9.1882    1.0000 </r>
       <r>   -9.1688    1.0000 </r>
       <r>   -9.1269    1.0000 </r>
       <r>   -9.1161    1.0000 </r>
       <r>   -8.4305    1.0000 </r>
       <r>   -8.4217    1.0000 </r>
       <r>   -8.0840    1.0000 </r>
       <r>   -8.0648    1.0000 </r>
       <r>   -7.1980    1.0000 </r>
       <r>   -7.1838    1.0000 </r>
       <r>   -6.4078    1.0000 </r>
       <r>   -6.1315    1.0000 </r>
       <r>   -6.1086    1.0000 </r>
       <r>   -6.1003    1.0000 </r>
       <r>   -4.2578    1.0000 </r>
       <r>   -3.8994    1.0000 </r>
       <r>   -1.7104    0.0000 </r>
       <r>   -1.2653    0.0000 </r>
       <r>    0.2678    0.0000 </r>
       <r>    0.2788    0.0000 </r>
       <r>    0.7376    0.0000 </r>
       <r>    1.5328    0.0000 </r>
       <r>    1.8591    0.0000 </r>
       <r>    2.0026    0.0000 </r>
       <r>    2.0213    0.0000 </r>
       <r>    2.7776    0.0000 </r>
      </set>
      <set comment="kpoint 13">
       <r>  -22.0954    1.0000 </r>
       <r>  -20.6113    1.0000 </r>
       <r>  -20.6110    1.0000 </r>
       <r>  -19.5197    1.0000 </r>
       <r>  -19.5193    1.0000 </r>
       <r>  -18.4549    1.0000 </r>
       <r>  -18.4548    1.0000 </r>
       <r>  -16.7791    1.0000 </r>
       <r>  -16.1615    1.0000 </r>
       <r>  -15.2406    1.0000 </r>
       <r>  -14.2550    1.0000 </r>
       <r>  -14.1587    1.0000 </r>
       <r>  -14.1584    1.0000 </r>
       <r>  -12.6057    1.0000 </r>
       <r>  -12.3079    1.0000 </r>
       <r>  -12.3070    1.0000 </r>
       <r>  -12.2697    1.0000 </r>
       <r>  -10.4868    1.0000 </r>
       <r>  -10.4863    1.0000 </r>
       <r>  -10.1684    1.0000 </r>
       <r>   -9.1809    1.0000 </r>
       <r>   -9.1766    1.0000 </r>
       <r>   -9.1236    1.0000 </r>
       <r>   -9.1191    1.0000 </r>
       <r>   -8.4263    1.0000 </r>
       <r>   -8.4260    1.0000 </r>
       <r>   -8.0745    1.0000 </r>
       <r>   -8.0742    1.0000 </r>
       <r>   -7.1910    1.0000 </r>
       <r>   -7.1908    1.0000 </r>
       <r>   -6.4081    1.0000 </r>
       <r>   -6.1310    1.0000 </r>
       <r>   -6.1044    1.0000 </r>
       <r>   -6.1044    1.0000 </r>
       <r>   -4.2580    1.0000 </r>
       <r>   -3.8992    1.0000 </r>
       <r>   -1.7105    0.0000 </r>
       <r>   -1.2650    0.0000 </r>
       <r>    0.2730    0.0000 </r>
       <r>    0.2732    0.0000 </r>
       <r>    0.7376    0.0000 </r>
       <r>    1.5328    0.0000 </r>
       <r>    1.8591    0.0000 </r>
       <r>    2.0118    0.0000 </r>
       <r>    2.0121    0.0000 </r>
       <r>    2.7776    0.0000 </r>
      </set>
      <set comment="kpoint 14">
       <r>  -21.8817    1.0000 </r>
       <r>  -21.1380    1.0000 </r>
       <r>  -20.7689    1.0000 </r>
       <r>  -19.6745    1.0000 </r>
       <r>  -18.9582    1.0000 </r>
       <r>  -17.9171    1.0000 </r>
       <r>  -17.5972    1.0000 </r>
       <r>  -17.5690    1.0000 </r>
       <r>  -16.6712    1.0000 </r>
       <r>  -15.2539    1.0000 </r>
       <r>  -15.2501    1.0000 </r>
       <r>  -14.6349    1.0000 </r>
       <r>  -13.7271    1.0000 </r>
       <r>  -12.8211    1.0000 </r>
       <r>  -11.8989    1.0000 </r>
       <r>  -11.6835    1.0000 </r>
       <r>  -11.3881    1.0000 </r>
       <r>  -10.0416    1.0000 </r>
       <r>   -9.9156    1.0000 </r>
       <r>   -9.9143    1.0000 </r>
       <r>   -9.7115    1.0000 </r>
       <r>   -9.6292    1.0000 </r>
       <r>   -9.2878    1.0000 </r>
       <r>   -9.2582    1.0000 </r>
       <r>   -9.0376    1.0000 </r>
       <r>   -8.6069    1.0000 </r>
       <r>   -8.2587    1.0000 </r>
       <r>   -7.5793    1.0000 </r>
       <r>   -7.3542    1.0000 </r>
       <r>   -7.1416    1.0000 </r>
       <r>   -6.5676    1.0000 </r>
       <r>   -6.5465    1.0000 </r>
       <r>   -5.5819    1.0000 </r>
       <r>   -5.3857    1.0000 </r>
       <r>   -5.0736    1.0000 </r>
       <r>   -4.4328    1.0000 </r>
       <r>   -1.2965    0.0000 </r>
       <r>   -0.6855    0.0000 </r>
       <r>   -0.4272    0.0000 </r>
       <r>   -0.2952    0.0000 </r>
       <r>    1.0283    0.0000 </r>
       <r>    1.2245    0.0000 </r>
       <r>    1.8269    0.0000 </r>
       <r>    2.0447    0.0000 </r>
       <r>    2.1570    0.0000 </r>
       <r>    2.4030    0.0000 </r>
      </set>
      <set comment="kpoint 15">
       <r>  -21.8817    1.0000 </r>
       <r>  -21.1381    1.0000 </r>
       <r>  -20.7688    1.0000 </r>
       <r>  -19.6746    1.0000 </r>
       <r>  -18.9581    1.0000 </r>
       <r>  -17.9171    1.0000 </r>
       <r>  -17.5986    1.0000 </r>
       <r>  -17.5677    1.0000 </r>
       <r>  -16.6711    1.0000 </r>
       <r>  -15.2612    1.0000 </r>
       <r>  -15.2428    1.0000 </r>
       <r>  -14.6350    1.0000 </r>
       <r>  -13.7272    1.0000 </r>
       <r>  -12.8213    1.0000 </r>
       <r>  -11.8987    1.0000 </r>
       <r>  -11.6827    1.0000 </r>
       <r>  -11.3888    1.0000 </r>
       <r>  -10.0401    1.0000 </r>
       <r>   -9.9175    1.0000 </r>
       <r>   -9.9143    1.0000 </r>
       <r>   -9.7105    1.0000 </r>
       <r>   -9.6309    1.0000 </r>
       <r>   -9.2820    1.0000 </r>
       <r>   -9.2631    1.0000 </r>
       <r>   -9.0377    1.0000 </r>
       <r>   -8.6068    1.0000 </r>
       <r>   -8.2587    1.0000 </r>
       <r>   -7.5785    1.0000 </r>
       <r>   -7.3543    1.0000 </r>
       <r>   -7.1420    1.0000 </r>
       <r>   -6.5676    1.0000 </r>
       <r>   -6.5467    1.0000 </r>
       <r>   -5.5818    1.0000 </r>
       <r>   -5.3859    1.0000 </r>
       <r>   -5.0736    1.0000 </r>
       <r>   -4.4328    1.0000 </r>
       <r>   -1.2967    0.0000 </r>
       <r>   -0.6862    0.0000 </r>
       <r>   -0.4247    0.0000 </r>
       <r>   -0.2970    0.0000 </r>
       <r>    1.0283    0.0000 </r>
       <r>    1.2244    0.0000 </r>
       <r>    1.8269    0.0000 </r>
       <r>    2.0447    0.0000 </r>
       <r>    2.1570    0.0000 </r>
       <r>    2.4031    0.0000 </r>
      </set>
      <set comment="kpoint 16">
       <r>  -21.8817    1.0000 </r>
       <r>  -21.1380    1.0000 </r>
       <r>  -20.7690    1.0000 </r>
       <r>  -19.6744    1.0000 </r>
       <r>  -18.9583    1.0000 </r>
       <r>  -17.9166    1.0000 </r>
       <r>  -17.5937    1.0000 </r>
       <r>  -17.5732    1.0000 </r>
       <r>  -16.6709    1.0000 </r>
       <r>  -15.2634    1.0000 </r>
       <r>  -15.2405    1.0000 </r>
       <r>  -14.6348    1.0000 </r>
       <r>  -13.7273    1.0000 </r>
       <r>  -12.8211    1.0000 </r>
       <r>  -11.8995    1.0000 </r>
       <r>  -11.6823    1.0000 </r>
       <r>  -11.3887    1.0000 </r>
       <r>  -10.0405    1.0000 </r>
       <r>   -9.9172    1.0000 </r>
       <r>   -9.9143    1.0000 </r>
       <r>   -9.7109    1.0000 </r>
       <r>   -9.6290    1.0000 </r>
       <r>   -9.2886    1.0000 </r>
       <r>   -9.2578    1.0000 </r>
       <r>   -9.0376    1.0000 </r>
       <r>   -8.6069    1.0000 </r>
       <r>   -8.2586    1.0000 </r>
       <r>   -7.5792    1.0000 </r>
       <r>   -7.3542    1.0000 </r>
       <r>   -7.1420    1.0000 </r>
       <r>   -6.5677    1.0000 </r>
       <r>   -6.5461    1.0000 </r>
       <r>   -5.5815    1.0000 </r>
       <r>   -5.3856    1.0000 </r>
       <r>   -5.0743    1.0000 </r>
       <r>   -4.4327    1.0000 </r>
       <r>   -1.2967    0.0000 </r>
       <r>   -0.6850    0.0000 </r>
       <r>   -0.4247    0.0000 </r>
       <r>   -0.2982    0.0000 </r>
       <r>    1.0283    0.0000 </r>
       <r>    1.2246    0.0000 </r>
       <r>    1.8269    0.0000 </r>
       <r>    2.0447    0.0000 </r>
       <r>    2.1570    0.0000 </r>
       <r>    2.4030    0.0000 </r>
      </set>
      <set comment="kpoint 17">
       <r>  -21.8817    1.0000 </r>
       <r>  -21.1380    1.0000 </r>
       <r>  -20.7689    1.0000 </r>
       <r>  -19.6745    1.0000 </r>
       <r>  -18.9582    1.0000 </r>
       <r>  -17.9171    1.0000 </r>
       <r>  -17.5975    1.0000 </r>
       <r>  -17.5688    1.0000 </r>
       <r>  -16.6712    1.0000 </r>
       <r>  -15.2539    1.0000 </r>
       <r>  -15.2501    1.0000 </r>
       <r>  -14.6349    1.0000 </r>
       <r>  -13.7271    1.0000 </r>
       <r>  -12.8211    1.0000 </r>
       <r>  -11.8988    1.0000 </r>
       <r>  -11.6835    1.0000 </r>
       <r>  -11.3881    1.0000 </r>
       <r>  -10.0416    1.0000 </r>
       <r>   -9.9156    1.0000 </r>
       <r>   -9.9143    1.0000 </r>
       <r>   -9.7115    1.0000 </r>
       <r>   -9.6292    1.0000 </r>
       <r>   -9.2877    1.0000 </r>
       <r>   -9.2583    1.0000 </r>
       <r>   -9.0376    1.0000 </r>
       <r>   -8.6069    1.0000 </r>
       <r>   -8.2587    1.0000 </r>
       <r>   -7.5793    1.0000 </r>
       <r>   -7.3542    1.0000 </r>
       <r>   -7.1416    1.0000 </r>
       <r>   -6.5676    1.0000 </r>
       <r>   -6.5465    1.0000 </r>
       <r>   -5.5819    1.0000 </r>
       <r>   -5.3858    1.0000 </r>
       <r>   -5.0736    1.0000 </r>
       <r>   -4.4328    1.0000 </r>
       <r>   -1.2965    0.0000 </r>
       <r>   -0.6855    0.0000 </r>
       <r>   -0.4272    0.0000 </r>
       <r>   -0.2953    0.0000 </r>
       <r>    1.0283    0.0000 </r>
       <r>    1.2245    0.0000 </r>
       <r>    1.8269    0.0000 </r>
       <r>    2.0447    0.0000 </r>
       <r>    2.1570    0.0000 </r>
       <r>    2.4030    0.0000 </r>
      </set>
      <set comment="kpoint 18">
       <r>  -21.8817    1.0000 </r>
       <r>  -21.1381    1.0000 </r>
       <r>  -20.7688    1.0000 </r>
       <r>  -19.6746    1.0000 </r>
       <r>  -18.9581    1.0000 </r>
       <r>  -17.9171    1.0000 </r>
       <r>  -17.5985    1.0000 </r>
       <r>  -17.5678    1.0000 </r>
       <r>  -16.6711    1.0000 </r>
       <r>  -15.2612    1.0000 </r>
       <r>  -15.2427    1.0000 </r>
       <r>  -14.6350    1.0000 </r>
       <r>  -13.7272    1.0000 </r>
       <r>  -12.8213    1.0000 </r>
       <r>  -11.8987    1.0000 </r>
       <r>  -11.6827    1.0000 </r>
       <r>  -11.3888    1.0000 </r>
       <r>  -10.0401    1.0000 </r>
       <r>   -9.9175    1.0000 </r>
       <r>   -9.9143    1.0000 </r>
       <r>   -9.7105    1.0000 </r>
       <r>   -9.6309    1.0000 </r>
       <r>   -9.2819    1.0000 </r>
       <r>   -9.2631    1.0000 </r>
       <r>   -9.0377    1.0000 </r>
       <r>   -8.6068    1.0000 </r>
       <r>   -8.2587    1.0000 </r>
       <r>   -7.5785    1.0000 </r>
       <r>   -7.3543    1.0000 </r>
       <r>   -7.1420    1.0000 </r>
       <r>   -6.5676    1.0000 </r>
       <r>   -6.5467    1.0000 </r>
       <r>   -5.5819    1.0000 </r>
       <r>   -5.3858    1.0000 </r>
       <r>   -5.0736    1.0000 </r>
       <r>   -4.4328    1.0000 </r>
       <r>   -1.2967    0.0000 </r>
       <r>   -0.6861    0.0000 </r>
       <r>   -0.4248    0.0000 </r>
       <r>   -0.2969    0.0000 </r>
       <r>    1.0283    0.0000 </r>
       <r>    1.2244    0.0000 </r>
       <r>    1.8269    0.0000 </r>
       <r>    2.0447    0.0000 </r>
       <r>    2.1570    0.0000 </r>
       <r>    2.4295    0.0000 </r>
      </set>
      <set comment="kpoint 19">
       <r>  -21.8817    1.0000 </r>
       <r>  -21.1380    1.0000 </r>
       <r>  -20.7690    1.0000 </r>
       <r>  -19.6744    1.0000 </r>
       <r>  -18.9583    1.0000 </r>
       <r>  -17.9166    1.0000 </r>
       <r>  -17.5937    1.0000 </r>
       <r>  -17.5732    1.0000 </r>
       <r>  -16.6709    1.0000 </r>
       <r>  -15.2635    1.0000 </r>
       <r>  -15.2404    1.0000 </r>
       <r>  -14.6348    1.0000 </r>
       <r>  -13.7273    1.0000 </r>
       <r>  -12.8211    1.0000 </r>
       <r>  -11.8995    1.0000 </r>
       <r>  -11.6823    1.0000 </r>
       <r>  -11.3887    1.0000 </r>
       <r>  -10.0406    1.0000 </r>
       <r>   -9.9172    1.0000 </r>
       <r>   -9.9143    1.0000 </r>
       <r>   -9.7107    1.0000 </r>
       <r>   -9.6292    1.0000 </r>
       <r>   -9.2890    1.0000 </r>
       <r>   -9.2574    1.0000 </r>
       <r>   -9.0376    1.0000 </r>
       <r>   -8.6069    1.0000 </r>
       <r>   -8.2586    1.0000 </r>
       <r>   -7.5792    1.0000 </r>
       <r>   -7.3542    1.0000 </r>
       <r>   -7.1420    1.0000 </r>
       <r>   -6.5677    1.0000 </r>
       <r>   -6.5461    1.0000 </r>
       <r>   -5.5815    1.0000 </r>
       <r>   -5.3856    1.0000 </r>
       <r>   -5.0743    1.0000 </r>
       <r>   -4.4327    1.0000 </r>
       <r>   -1.2967    0.0000 </r>
       <r>   -0.6850    0.0000 </r>
       <r>   -0.4247    0.0000 </r>
       <r>   -0.2982    0.0000 </r>
       <r>    1.0283    0.0000 </r>
       <r>    1.2246    0.0000 </r>
       <r>    1.8269    0.0000 </r>
       <r>    2.0447    0.0000 </r>
       <r>    2.1570    0.0000 </r>
       <r>    2.4030    0.0000 </r>
      </set>
      <set comment="kpoint 20">
       <r>  -21.5677    1.0000 </r>
       <r>  -21.5566    1.0000 </r>
       <r>  -20.8216    1.0000 </r>
       <r>  -19.7262    1.0000 </r>
       <r>  -18.3146    1.0000 </r>
       <r>  -18.2980    1.0000 </r>
       <r>  -17.3159    1.0000 </r>
       <r>  -17.2992    1.0000 </r>
       <r>  -16.9870    1.0000 </r>
       <r>  -15.9391    1.0000 </r>
       <r>  -15.0155    1.0000 </r>
       <r>  -15.0038    1.0000 </r>
       <r>  -13.2881    1.0000 </r>
       <r>  -13.2758    1.0000 </r>
       <r>  -11.3588    1.0000 </r>
       <r>  -10.9931    1.0000 </r>
       <r>  -10.9829    1.0000 </r>
       <r>  -10.5044    1.0000 </r>
       <r>  -10.4952    1.0000 </r>
       <r>   -9.9060    1.0000 </r>
       <r>   -9.6342    1.0000 </r>
       <r>   -9.5405    1.0000 </r>
       <r>   -9.5314    1.0000 </r>
       <r>   -9.3358    1.0000 </r>
       <r>   -8.6673    1.0000 </r>
       <r>   -8.4186    1.0000 </r>
       <r>   -8.1355    1.0000 </r>
       <r>   -8.1138    1.0000 </r>
       <r>   -7.4091    1.0000 </r>
       <r>   -7.0665    1.0000 </r>
       <r>   -7.0389    1.0000 </r>
       <r>   -5.8629    1.0000 </r>
       <r>   -5.8490    1.0000 </r>
       <r>   -5.0634    1.0000 </r>
       <r>   -5.0181    1.0000 </r>
       <r>   -5.0060    1.0000 </r>
       <r>   -1.0891    0.0000 </r>
       <r>   -0.8280    0.0000 </r>
       <r>   -0.8183    0.0000 </r>
       <r>    0.4047    0.0000 </r>
       <r>    0.4172    0.0000 </r>
       <r>    1.4635    0.0000 </r>
       <r>    1.4648    0.0000 </r>
       <r>    2.2670    0.0000 </r>
       <r>    2.2675    0.0000 </r>
       <r>    2.6038    0.0000 </r>
      </set>
      <set comment="kpoint 21">
       <r>  -21.5622    1.0000 </r>
       <r>  -21.5621    1.0000 </r>
       <r>  -20.8215    1.0000 </r>
       <r>  -19.7264    1.0000 </r>
       <r>  -18.3064    1.0000 </r>
       <r>  -18.3061    1.0000 </r>
       <r>  -17.3079    1.0000 </r>
       <r>  -17.3077    1.0000 </r>
       <r>  -16.9865    1.0000 </r>
       <r>  -15.9391    1.0000 </r>
       <r>  -15.0097    1.0000 </r>
       <r>  -15.0096    1.0000 </r>
       <r>  -13.2821    1.0000 </r>
       <r>  -13.2819    1.0000 </r>
       <r>  -11.3582    1.0000 </r>
       <r>  -10.9882    1.0000 </r>
       <r>  -10.9878    1.0000 </r>
       <r>  -10.5000    1.0000 </r>
       <r>  -10.4999    1.0000 </r>
       <r>   -9.9055    1.0000 </r>
       <r>   -9.6358    1.0000 </r>
       <r>   -9.5360    1.0000 </r>
       <r>   -9.5359    1.0000 </r>
       <r>   -9.3350    1.0000 </r>
       <r>   -8.6672    1.0000 </r>
       <r>   -8.4206    1.0000 </r>
       <r>   -8.1249    1.0000 </r>
       <r>   -8.1214    1.0000 </r>
       <r>   -7.4092    1.0000 </r>
       <r>   -7.0535    1.0000 </r>
       <r>   -7.0529    1.0000 </r>
       <r>   -5.8560    1.0000 </r>
       <r>   -5.8559    1.0000 </r>
       <r>   -5.0645    1.0000 </r>
       <r>   -5.0124    1.0000 </r>
       <r>   -5.0104    1.0000 </r>
       <r>   -1.0900    0.0000 </r>
       <r>   -0.8231    0.0000 </r>
       <r>   -0.8225    0.0000 </r>
       <r>    0.4108    0.0000 </r>
       <r>    0.4111    0.0000 </r>
       <r>    1.4641    0.0000 </r>
       <r>    1.4641    0.0000 </r>
       <r>    2.2672    0.0000 </r>
       <r>    2.2672    0.0000 </r>
       <r>    2.4814    0.0000 </r>
      </set>
      <set comment="kpoint 22">
       <r>  -21.5678    1.0000 </r>
       <r>  -21.5565    1.0000 </r>
       <r>  -20.8216    1.0000 </r>
       <r>  -19.7262    1.0000 </r>
       <r>  -18.3143    1.0000 </r>
       <r>  -18.2983    1.0000 </r>
       <r>  -17.3162    1.0000 </r>
       <r>  -17.2989    1.0000 </r>
       <r>  -16.9870    1.0000 </r>
       <r>  -15.9391    1.0000 </r>
       <r>  -15.0155    1.0000 </r>
       <r>  -15.0037    1.0000 </r>
       <r>  -13.2881    1.0000 </r>
       <r>  -13.2758    1.0000 </r>
       <r>  -11.3588    1.0000 </r>
       <r>  -10.9927    1.0000 </r>
       <r>  -10.9834    1.0000 </r>
       <r>  -10.5048    1.0000 </r>
       <r>  -10.4948    1.0000 </r>
       <r>   -9.9060    1.0000 </r>
       <r>   -9.6342    1.0000 </r>
       <r>   -9.5405    1.0000 </r>
       <r>   -9.5314    1.0000 </r>
       <r>   -9.3358    1.0000 </r>
       <r>   -8.6673    1.0000 </r>
       <r>   -8.4186    1.0000 </r>
       <r>   -8.1354    1.0000 </r>
       <r>   -8.1139    1.0000 </r>
       <r>   -7.4091    1.0000 </r>
       <r>   -7.0666    1.0000 </r>
       <r>   -7.0389    1.0000 </r>
       <r>   -5.8626    1.0000 </r>
       <r>   -5.8493    1.0000 </r>
       <r>   -5.0634    1.0000 </r>
       <r>   -5.0183    1.0000 </r>
       <r>   -5.0058    1.0000 </r>
       <r>   -1.0891    0.0000 </r>
       <r>   -0.8281    0.0000 </r>
       <r>   -0.8182    0.0000 </r>
       <r>    0.4050    0.0000 </r>
       <r>    0.4168    0.0000 </r>
       <r>    1.4635    0.0000 </r>
       <r>    1.4647    0.0000 </r>
       <r>    2.2670    0.0000 </r>
       <r>    2.2675    0.0000 </r>
       <r>    2.4862    0.0000 </r>
      </set>
      <set comment="kpoint 23">
       <r>  -21.6154    1.0000 </r>
       <r>  -21.2495    1.0000 </r>
       <r>  -21.2381    1.0000 </r>
       <r>  -19.0680    1.0000 </r>
       <r>  -19.0524    1.0000 </r>
       <r>  -18.3558    1.0000 </r>
       <r>  -17.0948    1.0000 </r>
       <r>  -17.0831    1.0000 </r>
       <r>  -16.7115    1.0000 </r>
       <r>  -15.6768    1.0000 </r>
       <r>  -15.6201    1.0000 </r>
       <r>  -15.6079    1.0000 </r>
       <r>  -12.9182    1.0000 </r>
       <r>  -12.2693    1.0000 </r>
       <r>  -12.2576    1.0000 </r>
       <r>  -11.3542    1.0000 </r>
       <r>  -10.5600    1.0000 </r>
       <r>  -10.5555    1.0000 </r>
       <r>  -10.5407    1.0000 </r>
       <r>   -9.8251    1.0000 </r>
       <r>   -9.8141    1.0000 </r>
       <r>   -9.5987    1.0000 </r>
       <r>   -9.1656    1.0000 </r>
       <r>   -9.1565    1.0000 </r>
       <r>   -8.8329    1.0000 </r>
       <r>   -8.8107    1.0000 </r>
       <r>   -7.8841    1.0000 </r>
       <r>   -7.6965    1.0000 </r>
       <r>   -7.6731    1.0000 </r>
       <r>   -7.0819    1.0000 </r>
       <r>   -6.6718    1.0000 </r>
       <r>   -6.6579    1.0000 </r>
       <r>   -5.8937    1.0000 </r>
       <r>   -5.0096    1.0000 </r>
       <r>   -5.0006    1.0000 </r>
       <r>   -4.6730    1.0000 </r>
       <r>   -1.2278    0.0000 </r>
       <r>   -1.0295    0.0000 </r>
       <r>   -1.0195    0.0000 </r>
       <r>    0.5286    0.0000 </r>
       <r>    1.3917    0.0000 </r>
       <r>    1.4747    0.0000 </r>
       <r>    1.4905    0.0000 </r>
       <r>    1.8995    0.0000 </r>
       <r>    1.9008    0.0000 </r>
       <r>    2.1940    0.0000 </r>
      </set>
      <set comment="kpoint 24">
       <r>  -21.6154    1.0000 </r>
       <r>  -21.2494    1.0000 </r>
       <r>  -21.2382    1.0000 </r>
       <r>  -19.0681    1.0000 </r>
       <r>  -19.0523    1.0000 </r>
       <r>  -18.3558    1.0000 </r>
       <r>  -17.0949    1.0000 </r>
       <r>  -17.0830    1.0000 </r>
       <r>  -16.7115    1.0000 </r>
       <r>  -15.6768    1.0000 </r>
       <r>  -15.6202    1.0000 </r>
       <r>  -15.6079    1.0000 </r>
       <r>  -12.9182    1.0000 </r>
       <r>  -12.2695    1.0000 </r>
       <r>  -12.2574    1.0000 </r>
       <r>  -11.3542    1.0000 </r>
       <r>  -10.5599    1.0000 </r>
       <r>  -10.5557    1.0000 </r>
       <r>  -10.5406    1.0000 </r>
       <r>   -9.8249    1.0000 </r>
       <r>   -9.8143    1.0000 </r>
       <r>   -9.5987    1.0000 </r>
       <r>   -9.1656    1.0000 </r>
       <r>   -9.1566    1.0000 </r>
       <r>   -8.8329    1.0000 </r>
       <r>   -8.8106    1.0000 </r>
       <r>   -7.8842    1.0000 </r>
       <r>   -7.6964    1.0000 </r>
       <r>   -7.6732    1.0000 </r>
       <r>   -7.0819    1.0000 </r>
       <r>   -6.6719    1.0000 </r>
       <r>   -6.6578    1.0000 </r>
       <r>   -5.8937    1.0000 </r>
       <r>   -5.0098    1.0000 </r>
       <r>   -5.0004    1.0000 </r>
       <r>   -4.6730    1.0000 </r>
       <r>   -1.2278    0.0000 </r>
       <r>   -1.0297    0.0000 </r>
       <r>   -1.0193    0.0000 </r>
       <r>    0.5286    0.0000 </r>
       <r>    1.3917    0.0000 </r>
       <r>    1.4745    0.0000 </r>
       <r>    1.4907    0.0000 </r>
       <r>    1.8995    0.0000 </r>
       <r>    1.9008    0.0000 </r>
       <r>    2.1940    0.0000 </r>
      </set>
      <set comment="kpoint 25">
       <r>  -21.6155    1.0000 </r>
       <r>  -21.2439    1.0000 </r>
       <r>  -21.2436    1.0000 </r>
       <r>  -19.0605    1.0000 </r>
       <r>  -19.0600    1.0000 </r>
       <r>  -18.3557    1.0000 </r>
       <r>  -17.0894    1.0000 </r>
       <r>  -17.0889    1.0000 </r>
       <r>  -16.7112    1.0000 </r>
       <r>  -15.6780    1.0000 </r>
       <r>  -15.6143    1.0000 </r>
       <r>  -15.6126    1.0000 </r>
       <r>  -12.9182    1.0000 </r>
       <r>  -12.2637    1.0000 </r>
       <r>  -12.2633    1.0000 </r>
       <r>  -11.3541    1.0000 </r>
       <r>  -10.5648    1.0000 </r>
       <r>  -10.5495    1.0000 </r>
       <r>  -10.5421    1.0000 </r>
       <r>   -9.8198    1.0000 </r>
       <r>   -9.8193    1.0000 </r>
       <r>   -9.5988    1.0000 </r>
       <r>   -9.1612    1.0000 </r>
       <r>   -9.1610    1.0000 </r>
       <r>   -8.8221    1.0000 </r>
       <r>   -8.8214    1.0000 </r>
       <r>   -7.8836    1.0000 </r>
       <r>   -7.6865    1.0000 </r>
       <r>   -7.6844    1.0000 </r>
       <r>   -7.0810    1.0000 </r>
       <r>   -6.6651    1.0000 </r>
       <r>   -6.6648    1.0000 </r>
       <r>   -5.8935    1.0000 </r>
       <r>   -5.0054    1.0000 </r>
       <r>   -5.0051    1.0000 </r>
       <r>   -4.6728    1.0000 </r>
       <r>   -1.2279    0.0000 </r>
       <r>   -1.0245    0.0000 </r>
       <r>   -1.0242    0.0000 </r>
       <r>    0.5283    0.0000 </r>
       <r>    1.3917    0.0000 </r>
       <r>    1.4825    0.0000 </r>
       <r>    1.4828    0.0000 </r>
       <r>    1.9001    0.0000 </r>
       <r>    1.9001    0.0000 </r>
       <r>    2.1940    0.0000 </r>
      </set>
     </set>
    </set>
   </array>
  </eigenvalues>
  <separator name="orbital magnetization" >
   <v name="MAGDIPOLOUT">      0.00000000      0.00000000      0.00000000</v>
  </separator>
  <dos>
   <i name="efermi">     -2.75525294 </i>
   <total>
    <array>
     <dimension dim="1">gridpoints</dimension>
     <dimension dim="2">spin</dimension>
     <field>energy</field>
     <field>total</field>
     <field>integrated</field>
     <set>
      <set comment="spin 1">
       <r>   -23.5114     0.0000     0.0000 </r>
       <r>   -23.4193     0.0000     0.0000 </r>
       <r>   -23.3272     0.0000     0.0000 </r>
       <r>   -23.2352     0.0000     0.0000 </r>
       <r>   -23.1431     0.0000     0.0000 </r>
       <r>   -23.0511     0.0000     0.0000 </r>
       <r>   -22.9590     0.0000     0.0000 </r>
       <r>   -22.8669     0.0000     0.0000 </r>
       <r>   -22.7749     0.0000     0.0000 </r>
       <r>   -22.6828     0.0000     0.0000 </r>
       <r>   -22.5908     0.0000     0.0000 </r>
       <r>   -22.4987     0.0000     0.0000 </r>
       <r>   -22.4066     0.0000     0.0000 </r>
       <r>   -22.3146     0.0236     0.0022 </r>
       <r>   -22.2225     1.1017     0.1036 </r>
       <r>   -22.1305     2.3659     0.3214 </r>
       <r>   -22.0384     3.5654     0.6496 </r>
       <r>   -21.9463     1.5379     0.7912 </r>
       <r>   -21.8543     4.0188     1.1612 </r>
       <r>   -21.7622     2.8374     1.4224 </r>
       <r>   -21.6702     1.1180     1.5253 </r>
       <r>   -21.5781     3.8502     1.8798 </r>
       <r>   -21.4860     3.9034     2.2391 </r>
       <r>   -21.3940     1.6545     2.3914 </r>
       <r>   -21.3019     1.3368     2.5145 </r>
       <r>   -21.2099     4.2567     2.9064 </r>
       <r>   -21.1178     4.6053     3.3303 </r>
       <r>   -21.0257     1.5132     3.4696 </r>
       <r>   -20.9337     1.1231     3.5730 </r>
       <r>   -20.8416     2.3776     3.7919 </r>
       <r>   -20.7496     5.5268     4.3007 </r>
       <r>   -20.6575     2.1217     4.4960 </r>
       <r>   -20.5654     4.2778     4.8899 </r>
       <r>   -20.4734     0.5316     4.9388 </r>
       <r>   -20.3813     0.5434     4.9888 </r>
       <r>   -20.2893     5.1460     5.4626 </r>
       <r>   -20.1972     4.6813     5.8935 </r>
       <r>   -20.1051     2.8882     6.1594 </r>
       <r>   -20.0131     1.1971     6.2696 </r>
       <r>   -19.9210     3.9419     6.6325 </r>
       <r>   -19.8290     0.2280     6.6535 </r>
       <r>   -19.7369     1.3570     6.7784 </r>
       <r>   -19.6448     7.5660     7.4750 </r>
       <r>   -19.5528     2.6502     7.7189 </r>
       <r>   -19.4607     4.1122     8.0975 </r>
       <r>   -19.3686     0.2808     8.1234 </r>
       <r>   -19.2766     1.8537     8.2940 </r>
       <r>   -19.1845     3.3687     8.6041 </r>
       <r>   -19.0925     1.0719     8.7028 </r>
       <r>   -19.0004     4.7096     9.1364 </r>
       <r>   -18.9083     5.7842     9.6689 </r>
       <r>   -18.8163     2.0675     9.8592 </r>
       <r>   -18.7242     4.0217    10.2295 </r>
       <r>   -18.6322     1.0524    10.3263 </r>
       <r>   -18.5401     0.0472    10.3307 </r>
       <r>   -18.4480     3.0333    10.6099 </r>
       <r>   -18.3560     3.9960    10.9778 </r>
       <r>   -18.2639     5.5888    11.4923 </r>
       <r>   -18.1719     2.5418    11.7263 </r>
       <r>   -18.0798     4.1741    12.1106 </r>
       <r>   -17.9877     1.9783    12.2927 </r>
       <r>   -17.8957     3.7866    12.6413 </r>
       <r>   -17.8036     1.4543    12.7752 </r>
       <r>   -17.7116     0.0069    12.7758 </r>
       <r>   -17.6195     1.8026    12.9418 </r>
       <r>   -17.5274     8.6516    13.7382 </r>
       <r>   -17.4354     4.9456    14.1935 </r>
       <r>   -17.3433     1.4148    14.3238 </r>
       <r>   -17.2513     4.8385    14.7692 </r>
       <r>   -17.1592     2.3491    14.9855 </r>
       <r>   -17.0671     3.8520    15.3401 </r>
       <r>   -16.9751     3.0774    15.6234 </r>
       <r>   -16.8830     0.9876    15.7143 </r>
       <r>   -16.7910     1.5784    15.8596 </r>
       <r>   -16.6989     8.6598    16.6568 </r>
       <r>   -16.6068     5.5338    17.1663 </r>
       <r>   -16.5148     0.1888    17.1837 </r>
       <r>   -16.4227     0.0000    17.1837 </r>
       <r>   -16.3307     0.0000    17.1837 </r>
       <r>   -16.2386     0.0394    17.1873 </r>
       <r>   -16.1465     1.7326    17.3468 </r>
       <r>   -16.0545     1.1737    17.4549 </r>
       <r>   -15.9624     4.7313    17.8904 </r>
       <r>   -15.8704     2.8935    18.1568 </r>
       <r>   -15.7783     0.5509    18.2075 </r>
       <r>   -15.6862     3.2316    18.5050 </r>
       <r>   -15.5942     5.3542    18.9979 </r>
       <r>   -15.5021     1.5695    19.1424 </r>
       <r>   -15.4101     0.0691    19.1488 </r>
       <r>   -15.3180     1.6245    19.2983 </r>
       <r>   -15.2259     9.9531    20.2146 </r>
       <r>   -15.1339     3.4242    20.5299 </r>
       <r>   -15.0418     0.9857    20.6206 </r>
       <r>   -14.9498     4.9135    21.0729 </r>
       <r>   -14.8577     4.4359    21.4813 </r>
       <r>   -14.7656     1.3198    21.6028 </r>
       <r>   -14.6736     2.7868    21.8594 </r>
       <r>   -14.5815     8.5312    22.6447 </r>
       <r>   -14.4895     0.9766    22.7346 </r>
       <r>   -14.3974     0.0958    22.7435 </r>
       <r>   -14.3053     3.7718    23.0907 </r>
       <r>   -14.2133     4.1462    23.4724 </r>
       <r>   -14.1212     4.4516    23.8822 </r>
       <r>   -14.0292     0.9111    23.9661 </r>
       <r>   -13.9371     3.3777    24.2770 </r>
       <r>   -13.8450     1.8617    24.4484 </r>
       <r>   -13.7530     1.2466    24.5632 </r>
       <r>   -13.6609     4.0162    24.9329 </r>
       <r>   -13.5689     2.3118    25.1457 </r>
       <r>   -13.4768     4.3240    25.5438 </r>
       <r>   -13.3847     1.4187    25.6744 </r>
       <r>   -13.2927     2.4381    25.8989 </r>
       <r>   -13.2006     3.6930    26.2388 </r>
       <r>   -13.1086     0.0662    26.2449 </r>
       <r>   -13.0165     0.8240    26.3208 </r>
       <r>   -12.9244     9.3811    27.1844 </r>
       <r>   -12.8324     5.0727    27.6514 </r>
       <r>   -12.7403     3.2843    27.9538 </r>
       <r>   -12.6482     0.3533    27.9863 </r>
       <r>   -12.5562     2.1431    28.1836 </r>
       <r>   -12.4641     0.2495    28.2066 </r>
       <r>   -12.3721     1.5857    28.3525 </r>
       <r>   -12.2800     7.9291    29.0825 </r>
       <r>   -12.1879     8.7148    29.8848 </r>
       <r>   -12.0959     2.9869    30.1598 </r>
       <r>   -12.0038     0.0462    30.1640 </r>
       <r>   -11.9118     1.9027    30.3392 </r>
       <r>   -11.8197     3.3953    30.6517 </r>
       <r>   -11.7276     3.6567    30.9884 </r>
       <r>   -11.6356     6.5002    31.5868 </r>
       <r>   -11.5435     0.4981    31.6326 </r>
       <r>   -11.4515     0.2192    31.6528 </r>
       <r>   -11.3594     6.5040    32.2516 </r>
       <r>   -11.2673     6.0527    32.8088 </r>
       <r>   -11.1753     3.3561    33.1178 </r>
       <r>   -11.0832     5.5707    33.6306 </r>
       <r>   -10.9912     4.7030    34.0636 </r>
       <r>   -10.8991     2.8234    34.3235 </r>
       <r>   -10.8070     0.0331    34.3265 </r>
       <r>   -10.7150     0.0036    34.3269 </r>
       <r>   -10.6229     1.5134    34.4662 </r>
       <r>   -10.5309    10.9864    35.4776 </r>
       <r>   -10.4388    10.7095    36.4635 </r>
       <r>   -10.3467     2.7939    36.7207 </r>
       <r>   -10.2547     5.9355    37.2671 </r>
       <r>   -10.1626     2.0620    37.4570 </r>
       <r>   -10.0706     4.2922    37.8521 </r>
       <r>    -9.9785     4.9551    38.3083 </r>
       <r>    -9.8864    10.8864    39.3105 </r>
       <r>    -9.7944     9.9726    40.2286 </r>
       <r>    -9.7023     6.1731    40.7968 </r>
       <r>    -9.6103     8.8472    41.6113 </r>
       <r>    -9.5182     8.8096    42.4223 </r>
       <r>    -9.4261     5.4999    42.9287 </r>
       <r>    -9.3341     3.7973    43.2782 </r>
       <r>    -9.2420    10.3279    44.2290 </r>
       <r>    -9.1500    12.0541    45.3387 </r>
       <r>    -9.0579    14.8436    46.7052 </r>
       <r>    -8.9658     6.8173    47.3328 </r>
       <r>    -8.8738     2.9918    47.6083 </r>
       <r>    -8.7817    12.5490    48.7635 </r>
       <r>    -8.6897     6.7807    49.3878 </r>
       <r>    -8.5976     7.4648    50.0750 </r>
       <r>    -8.5055     7.0172    50.7210 </r>
       <r>    -8.4135     8.1259    51.4691 </r>
       <r>    -8.3214     3.2930    51.7722 </r>
       <r>    -8.2294     4.0743    52.1473 </r>
       <r>    -8.1373     5.4672    52.6506 </r>
       <r>    -8.0452    13.8846    53.9288 </r>
       <r>    -7.9532     5.2217    54.4095 </r>
       <r>    -7.8611     5.0033    54.8701 </r>
       <r>    -7.7691     1.1469    54.9757 </r>
       <r>    -7.6770     8.3771    55.7469 </r>
       <r>    -7.5849     7.0405    56.3951 </r>
       <r>    -7.4929     5.1853    56.8724 </r>
       <r>    -7.4008     2.9295    57.1421 </r>
       <r>    -7.3088     7.3228    57.8163 </r>
       <r>    -7.2167     2.2372    58.0222 </r>
       <r>    -7.1246    10.0430    58.9468 </r>
       <r>    -7.0326     7.8929    59.6734 </r>
       <r>    -6.9405     3.4299    59.9891 </r>
       <r>    -6.8485     3.5576    60.3167 </r>
       <r>    -6.7564     0.1473    60.3302 </r>
       <r>    -6.6643     4.2943    60.7256 </r>
       <r>    -6.5723    10.5539    61.6972 </r>
       <r>    -6.4802     8.8812    62.5148 </r>
       <r>    -6.3882     4.1155    62.8936 </r>
       <r>    -6.2961     4.0033    63.2622 </r>
       <r>    -6.2040     1.7965    63.4276 </r>
       <r>    -6.1120     4.9934    63.8873 </r>
       <r>    -6.0199     4.7143    64.3213 </r>
       <r>    -5.9278     2.9206    64.5901 </r>
       <r>    -5.8358     7.9585    65.3228 </r>
       <r>    -5.7437     7.1602    65.9820 </r>
       <r>    -5.6517     3.4041    66.2953 </r>
       <r>    -5.5596     3.8029    66.6454 </r>
       <r>    -5.4675     1.4647    66.7803 </r>
       <r>    -5.3755     3.2146    67.0762 </r>
       <r>    -5.2834     2.0660    67.2664 </r>
       <r>    -5.1914     1.5384    67.4080 </r>
       <r>    -5.0993     3.2171    67.7042 </r>
       <r>    -5.0072    15.6341    69.1435 </r>
       <r>    -4.9152     6.1514    69.7098 </r>
       <r>    -4.8231     0.0492    69.7143 </r>
       <r>    -4.7311     0.1329    69.7265 </r>
       <r>    -4.6390     2.0780    69.9178 </r>
       <r>    -4.5469     0.4521    69.9594 </r>
       <r>    -4.4549     1.4111    70.0893 </r>
       <r>    -4.3628     3.9793    70.4557 </r>
       <r>    -4.2708     5.0531    70.9209 </r>
       <r>    -4.1787     2.8192    71.1804 </r>
       <r>    -4.0866     0.0355    71.1837 </r>
       <r>    -3.9946     0.0094    71.1845 </r>
       <r>    -3.9025     1.2253    71.2973 </r>
       <r>    -3.8105     1.4096    71.4271 </r>
       <r>    -3.7184     0.0159    71.4286 </r>
       <r>    -3.6263     0.0135    71.4298 </r>
       <r>    -3.5343     2.1977    71.6321 </r>
       <r>    -3.4422     3.0626    71.9141 </r>
       <r>    -3.3502     0.0466    71.9184 </r>
       <r>    -3.2581     0.0000    71.9184 </r>
       <r>    -3.1660     0.0000    71.9184 </r>
       <r>    -3.0740     0.0000    71.9184 </r>
       <r>    -2.9819     0.0000    71.9184 </r>
       <r>    -2.8899     0.0003    71.9184 </r>
       <r>    -2.7978     0.2307    71.9396 </r>
       <r>    -2.7057     1.3739    72.0661 </r>
       <r>    -2.6137     0.1684    72.0816 </r>
       <r>    -2.5216     0.0001    72.0816 </r>
       <r>    -2.4296     0.0000    72.0816 </r>
       <r>    -2.3375     0.0000    72.0816 </r>
       <r>    -2.2454     0.0000    72.0816 </r>
       <r>    -2.1534     0.0001    72.0816 </r>
       <r>    -2.0613     0.2885    72.1082 </r>
       <r>    -1.9693     4.1839    72.4934 </r>
       <r>    -1.8772     0.8471    72.5714 </r>
       <r>    -1.7851     0.0468    72.5757 </r>
       <r>    -1.6931     1.7844    72.7399 </r>
       <r>    -1.6010     0.8272    72.8161 </r>
       <r>    -1.5090     0.0026    72.8163 </r>
       <r>    -1.4169     0.0022    72.8165 </r>
       <r>    -1.3248     1.8857    72.9901 </r>
       <r>    -1.2328    11.5072    74.0495 </r>
       <r>    -1.1407     2.7452    74.3022 </r>
       <r>    -1.0487     3.5072    74.6251 </r>
       <r>    -0.9566     5.8777    75.1662 </r>
       <r>    -0.8645     1.7216    75.3247 </r>
       <r>    -0.7725     4.3001    75.7205 </r>
       <r>    -0.6804     3.3618    76.0300 </r>
       <r>    -0.5884     4.7612    76.4683 </r>
       <r>    -0.4963     2.9792    76.7426 </r>
       <r>    -0.4042     3.7864    77.0912 </r>
       <r>    -0.3122     3.2571    77.3910 </r>
       <r>    -0.2201     5.2667    77.8759 </r>
       <r>    -0.1281     0.9022    77.9589 </r>
       <r>    -0.0360     0.0029    77.9592 </r>
       <r>     0.0561     0.5283    78.0078 </r>
       <r>     0.1481     4.2530    78.3994 </r>
       <r>     0.2402     1.4803    78.5357 </r>
       <r>     0.3322     4.1918    78.9216 </r>
       <r>     0.4243     3.6298    79.2557 </r>
       <r>     0.5164     3.0898    79.5402 </r>
       <r>     0.6084     3.6562    79.8768 </r>
       <r>     0.7005     1.3284    79.9991 </r>
       <r>     0.7926     5.8387    80.5366 </r>
       <r>     0.8846     5.9168    81.0813 </r>
       <r>     0.9767     1.4916    81.2186 </r>
       <r>     1.0687     4.2742    81.6121 </r>
       <r>     1.1608     1.8141    81.7791 </r>
       <r>     1.2529     5.6972    82.3036 </r>
       <r>     1.3449     2.0832    82.4953 </r>
       <r>     1.4370     6.9192    83.1323 </r>
       <r>     1.5290    14.0618    84.4269 </r>
       <r>     1.6211     4.4825    84.8395 </r>
       <r>     1.7132     4.6569    85.2682 </r>
       <r>     1.8052     3.3584    85.5774 </r>
       <r>     1.8973     8.8085    86.3883 </r>
       <r>     1.9893     8.8632    87.2043 </r>
       <r>     2.0814     9.2672    88.0574 </r>
       <r>     2.1735     6.8976    88.6924 </r>
       <r>     2.2655     6.9067    89.3282 </r>
       <r>     2.3576     7.3067    90.0009 </r>
       <r>     2.4496     5.7748    90.5325 </r>
       <r>     2.5417     4.2138    90.9205 </r>
       <r>     2.6338     2.3530    91.1371 </r>
       <r>     2.7258     2.2108    91.3406 </r>
       <r>     2.8179     4.5387    91.7584 </r>
       <r>     2.9099     2.4941    91.9880 </r>
       <r>     3.0020     0.1299    92.0000 </r>
       <r>     3.0941     0.0000    92.0000 </r>
       <r>     3.1861     0.0000    92.0000 </r>
       <r>     3.2782     0.0000    92.0000 </r>
       <r>     3.3702     0.0000    92.0000 </r>
       <r>     3.4623     0.0000    92.0000 </r>
       <r>     3.5544     0.0000    92.0000 </r>
       <r>     3.6464     0.0000    92.0000 </r>
       <r>     3.7385     0.0000    92.0000 </r>
       <r>     3.8305     0.0000    92.0000 </r>
       <r>     3.9226     0.0000    92.0000 </r>
       <r>     4.0147     0.0000    92.0000 </r>
       <r>     4.1067     0.0000    92.0000 </r>
      </set>
     </set>
    </array>
   </total>
  </dos>
 </calculation>
 <structure name="finalpos" >
  <crystal>
   <varray name="basis" >
    <v>       7.40170591       0.00000000       0.00000000 </v>
    <v>      -3.70085295       6.41006527       0.00000000 </v>
    <v>       0.00000000       0.00000000      20.00000000 </v>
   </varray>
   <i name="volume">    948.90835877 </i>
   <varray name="rec_basis" >
    <v>       0.13510399       0.07800233       0.00000000 </v>
    <v>       0.00000000       0.15600465       0.00000000 </v>
    <v>       0.00000000       0.00000000       0.05000000 </v>
   </varray>
  </crystal>
  <varray name="positions" >
   <v>       0.99921998       0.99843995       0.50000000 </v>
   <v>       0.33411336       0.00156005       0.50000000 </v>
   <v>       0.66666667       0.00000000       0.50000000 </v>
   <v>       0.00000000       0.33333333       0.50000000 </v>
   <v>       0.33333333       0.33333333       0.50000000 </v>
   <v>       0.66666667       0.33333333       0.50000000 </v>
   <v>       0.00000000       0.66666667       0.50000000 </v>
   <v>       0.33333333       0.66666667       0.50000000 </v>
   <v>       0.66666667       0.66666667       0.50000000 </v>
   <v>       0.22222222       0.11111111       0.50000000 </v>
   <v>       0.55555556       0.11111111       0.50000000 </v>
   <v>       0.88888889       0.11111111       0.50000000 </v>
   <v>       0.22222222       0.44444444       0.50000000 </v>
   <v>       0.55555556       0.44444444       0.50000000 </v>
   <v>       0.88888889       0.44444444       0.50000000 </v>
   <v>       0.22222222       0.77777778       0.50000000 </v>
   <v>       0.55555556       0.77777778       0.50000000 </v>
   <v>       0.88888889       0.77777778       0.50000000 </v>
  </varray>
 </structure>
</modeling>
