<?xml version="1.0" encoding="ISO-8859-1"?>
<modeling>
 <generator>
  <i name="program" type="string">vasp </i>
  <i name="version" type="string">6.4.1  </i>
  <i name="subversion" type="string">05Apr23 (build Feb 12 2025 00:37:39) complex                          parallel </i>
  <i name="platform" type="string">LinuxIFC </i>
  <i name="date" type="string">2025 02 14 </i>
  <i name="time" type="string">04:24:00 </i>
 </generator>
 <incar>
  <i type="string" name="SYSTEM">SCF</i>
  <i type="int" name="ISTART">     0</i>
  <i type="int" name="ICHARG">     2</i>
  <i type="int" name="NELM">    60</i>
  <i type="int" name="NELMIN">     6</i>
  <i name="EDIFF">      0.00000100</i>
  <i name="EDIFFG">     -0.00000100</i>
  <i name="ENCUT">    600.00000000</i>
  <i type="string" name="LREAL">Auto</i>
  <i type="int" name="ISMEAR">     0</i>
  <i name="SIGMA">      0.05000000</i>
  <i type="logical" name="LWAVE"> F  </i>
  <i type="logical" name="LCHARG"> F  </i>
 </incar>
 <primitive_cell>
  <structure name="primitive_cell" >
   <crystal>
    <varray name="basis" >
     <v>       7.40170591       0.00000000       0.00000000 </v>
     <v>      -3.70085295       6.41006527       0.00000000 </v>
     <v>       0.00000000       0.00000000      20.00000000 </v>
    </varray>
    <i name="volume">    948.90835877 </i>
    <varray name="rec_basis" >
     <v>       0.13510399       0.07800233       0.00000000 </v>
     <v>       0.00000000       0.15600465       0.00000000 </v>
     <v>       0.00000000       0.00000000       0.05000000 </v>
    </varray>
   </crystal>
   <varray name="positions" >
    <v>       0.00057102       0.99843995       0.50000000 </v>
    <v>       0.33333333       0.00000000       0.50000000 </v>
    <v>       0.66666667       0.00000000       0.50000000 </v>
    <v>       1.00000000       0.33333333       0.50000000 </v>
    <v>       0.33333333       0.33333333       0.50000000 </v>
    <v>       0.66666667       0.33333333       0.50000000 </v>
    <v>       1.00000000       0.66666667       0.50000000 </v>
    <v>       0.33333333       0.66666667       0.50000000 </v>
    <v>       0.66666667       0.66666667       0.50000000 </v>
    <v>       0.22222222       0.11111111       0.50000000 </v>
    <v>       0.55555556       0.11111111       0.50000000 </v>
    <v>       0.88888889       0.11111111       0.50000000 </v>
    <v>       0.22222222       0.44444444       0.50000000 </v>
    <v>       0.55555556       0.44444444       0.50000000 </v>
    <v>       0.88888889       0.44444444       0.50000000 </v>
    <v>       0.22222222       0.77777778       0.50000000 </v>
    <v>       0.55555556       0.77777778       0.50000000 </v>
    <v>       0.88888889       0.77777778       0.50000000 </v>
   </varray>
  </structure>
  <varray name="primitive_index" >
   <v type="int" >        1 </v>
   <v type="int" >        2 </v>
   <v type="int" >        3 </v>
   <v type="int" >        4 </v>
   <v type="int" >        5 </v>
   <v type="int" >        6 </v>
   <v type="int" >        7 </v>
   <v type="int" >        8 </v>
   <v type="int" >        9 </v>
   <v type="int" >       10 </v>
   <v type="int" >       11 </v>
   <v type="int" >       12 </v>
   <v type="int" >       13 </v>
   <v type="int" >       14 </v>
   <v type="int" >       15 </v>
   <v type="int" >       16 </v>
   <v type="int" >       17 </v>
   <v type="int" >       18 </v>
  </varray>
 </primitive_cell>
 <kpoints>
  <generation param="Gamma">
   <v type="int" name="divisions">       7        7        1 </v>
   <v name="usershift">      0.00000000       0.00000000       0.00000000 </v>
   <v name="genvec1">      0.14285714       0.00000000       0.00000000 </v>
   <v name="genvec2">      0.00000000       0.14285714       0.00000000 </v>
   <v name="genvec3">      0.00000000       0.00000000       1.00000000 </v>
   <v name="shift">      0.00000000       0.00000000       0.00000000 </v>
  </generation>
  <varray name="kpointlist" >
   <v>       0.00000000       0.00000000       0.00000000 </v>
   <v>       0.14285714       0.00000000       0.00000000 </v>
   <v>       0.00000000       0.14285714       0.00000000 </v>
   <v>      -0.14285714       0.14285714       0.00000000 </v>
   <v>       0.28571429       0.00000000       0.00000000 </v>
   <v>       0.00000000       0.28571429       0.00000000 </v>
   <v>      -0.28571429       0.28571429       0.00000000 </v>
   <v>       0.42857143       0.00000000       0.00000000 </v>
   <v>       0.00000000       0.42857143       0.00000000 </v>
   <v>      -0.42857143       0.42857143       0.00000000 </v>
   <v>       0.14285714       0.14285714       0.00000000 </v>
   <v>      -0.14285714       0.28571429       0.00000000 </v>
   <v>      -0.28571429       0.14285714       0.00000000 </v>
   <v>       0.28571429       0.14285714       0.00000000 </v>
   <v>      -0.14285714       0.42857143       0.00000000 </v>
   <v>      -0.42857143       0.28571429       0.00000000 </v>
   <v>      -0.28571429       0.42857143       0.00000000 </v>
   <v>       0.14285714       0.28571429       0.00000000 </v>
   <v>       0.42857143      -0.14285714       0.00000000 </v>
   <v>       0.42857143       0.14285714       0.00000000 </v>
   <v>      -0.14285714      -0.42857143       0.00000000 </v>
   <v>       0.42857143       0.42857143       0.00000000 </v>
   <v>       0.28571429       0.28571429       0.00000000 </v>
   <v>      -0.28571429      -0.42857143       0.00000000 </v>
   <v>       0.42857143       0.28571429       0.00000000 </v>
  </varray>
  <varray name="weights" >
   <v>       0.02040816 </v>
   <v>       0.04081633 </v>
   <v>       0.04081633 </v>
   <v>       0.04081633 </v>
   <v>       0.04081633 </v>
   <v>       0.04081633 </v>
   <v>       0.04081633 </v>
   <v>       0.04081633 </v>
   <v>       0.04081633 </v>
   <v>       0.04081633 </v>
   <v>       0.04081633 </v>
   <v>       0.04081633 </v>
   <v>       0.04081633 </v>
   <v>       0.04081633 </v>
   <v>       0.04081633 </v>
   <v>       0.04081633 </v>
   <v>       0.04081633 </v>
   <v>       0.04081633 </v>
   <v>       0.04081633 </v>
   <v>       0.04081633 </v>
   <v>       0.04081633 </v>
   <v>       0.04081633 </v>
   <v>       0.04081633 </v>
   <v>       0.04081633 </v>
   <v>       0.04081633 </v>
  </varray>
 </kpoints>
 <parameters>
  <separator name="general" >
   <i type="string" name="SYSTEM">SCF</i>
   <i type="logical" name="LCOMPAT"> F  </i>
  </separator>
  <separator name="electronic" >
   <i type="string" name="PREC">normal</i>
   <i name="ENMAX">    600.00000000</i>
   <i name="ENAUG">    644.87300000</i>
   <i name="EDIFF">      0.00000100</i>
   <i type="int" name="IALGO">    38</i>
   <i type="int" name="IWAVPR">    10</i>
   <i type="int" name="NBANDS">    46</i>
   <i type="int" name="NBANDSLOW">    -1</i>
   <i type="int" name="NBANDSHIGH">    -1</i>
   <i name="NELECT">     72.00000000</i>
   <i type="int" name="TURBO">     0</i>
   <i type="int" name="IRESTART">     0</i>
   <i type="int" name="NREBOOT">     0</i>
   <i type="int" name="NMIN">     0</i>
   <i name="EREF">      0.00000000</i>
   <separator name="electronic smearing" >
    <i type="int" name="ISMEAR">     0</i>
    <i name="SIGMA">      0.05000000</i>
    <i name="KSPACING">      0.50000000</i>
    <i type="logical" name="KGAMMA"> T  </i>
    <i type="logical" name="KBLOWUP"> T  </i>
   </separator>
   <separator name="electronic projectors" >
    <i type="logical" name="LREAL"> T  </i>
    <v name="ROPT">     -0.00050000</v>
    <i type="int" name="LMAXPAW">  -100</i>
    <i type="int" name="LMAXMIX">     2</i>
    <i type="logical" name="NLSPLINE"> F  </i>
   </separator>
   <separator name="electronic startup" >
    <i type="int" name="ISTART">     0</i>
    <i type="int" name="ICHARG">     2</i>
    <i type="int" name="INIWAV">     1</i>
   </separator>
   <separator name="electronic spin" >
    <i type="int" name="ISPIN">     1</i>
    <i type="logical" name="LNONCOLLINEAR"> F  </i>
    <v name="MAGMOM">      1.00000000      1.00000000      1.00000000      1.00000000      1.00000000      1.00000000      1.00000000      1.00000000      1.00000000      1.00000000      1.00000000      1.00000000      1.00000000      1.00000000      1.00000000      1.00000000      1.00000000      1.00000000</v>
    <i name="NUPDOWN">     -1.00000000</i>
    <i type="logical" name="LSORBIT"> F  </i>
    <v name="SAXIS">      0.00000000      0.00000000      1.00000000</v>
    <i type="logical" name="LSPIRAL"> F  </i>
    <v name="QSPIRAL">      0.00000000      0.00000000      0.00000000</v>
    <i type="logical" name="LZEROZ"> F  </i>
   </separator>
   <separator name="electronic exchange-correlation" >
    <i type="logical" name="LASPH"> F  </i>
    <i type="logical" name="LMETAGGA"> F  </i>
   </separator>
   <separator name="electronic convergence" >
    <i type="int" name="NELM">    60</i>
    <i type="int" name="NELMDL">    -5</i>
    <i type="int" name="NELMIN">     6</i>
    <i name="ENINI">    600.00000000</i>
    <separator name="electronic convergence detail" >
     <i type="logical" name="LDIAG"> T  </i>
     <i type="logical" name="LSUBROT"> F  </i>
     <i name="WEIMIN">      0.00000000</i>
     <i name="EBREAK">      0.00000000</i>
     <i name="DEPER">      0.30000000</i>
     <i type="int" name="NRMM">     4</i>
     <i name="TIME">      0.40000000</i>
    </separator>
   </separator>
   <separator name="electronic mixer" >
    <i name="AMIX">      0.40000000</i>
    <i name="BMIX">      1.00000000</i>
    <i name="AMIN">      0.10000000</i>
    <i name="AMIX_MAG">      1.60000000</i>
    <i name="BMIX_MAG">      1.00000000</i>
    <separator name="electronic mixer details" >
     <i type="int" name="IMIX">     4</i>
     <i type="logical" name="MIXFIRST"> F  </i>
     <i type="int" name="MAXMIX">   -45</i>
     <i name="WC">    100.00000000</i>
     <i type="int" name="INIMIX">     1</i>
     <i type="int" name="MIXPRE">     1</i>
     <i type="int" name="MREMOVE">     5</i>
    </separator>
   </separator>
   <separator name="electronic dipolcorrection" >
    <i type="logical" name="LDIPOL"> F  </i>
    <i type="logical" name="LMONO"> F  </i>
    <i type="int" name="IDIPOL">     0</i>
    <i name="EPSILON">      1.00000000</i>
    <v name="DIPOL">   -100.00000000   -100.00000000   -100.00000000</v>
    <i name="EFIELD">      0.00000000</i>
   </separator>
  </separator>
  <separator name="grids" >
   <i type="int" name="NGX">    48</i>
   <i type="int" name="NGY">    48</i>
   <i type="int" name="NGZ">   120</i>
   <i type="int" name="NGXF">    96</i>
   <i type="int" name="NGYF">    96</i>
   <i type="int" name="NGZF">   240</i>
   <i type="logical" name="ADDGRID"> F  </i>
  </separator>
  <separator name="ionic" >
   <i type="int" name="NSW">     0</i>
   <i type="int" name="IBRION">    -1</i>
   <i type="int" name="MDALGO">     0</i>
   <i type="int" name="ISIF">     2</i>
   <i name="PSTRESS">      0.00000000</i>
   <i name="EDIFFG">     -0.00000100</i>
   <i type="int" name="NFREE">     0</i>
   <i name="POTIM">      0.50000000</i>
   <i name="SMASS">     -3.00000000</i>
   <i name="SCALEE">      1.00000000</i>
  </separator>
  <separator name="ionic md" >
   <i name="TEBEG">      0.00010000</i>
   <i name="TEEND">      0.00010000</i>
   <i type="int" name="NBLOCK">     1</i>
   <i type="int" name="KBLOCK">     1</i>
   <i type="int" name="NPACO">   256</i>
   <i name="APACO">     10.00000000</i>
  </separator>
  <separator name="symmetry" >
   <i type="int" name="ISYM">     2</i>
   <i name="SYMPREC">      0.00001000</i>
  </separator>
  <separator name="dos" >
   <i type="int" name="LORBIT">     0</i>
   <v name="RWIGS">     -1.00000000</v>
   <i type="int" name="NEDOS">   301</i>
   <i name="EMIN">     10.00000000</i>
   <i name="EMAX">    -10.00000000</i>
   <i name="EFERMI">      0.00000000</i>
  </separator>
  <separator name="writing" >
   <i type="int" name="NWRITE">     2</i>
   <i type="logical" name="LWAVE"> F  </i>
   <i type="logical" name="LDOWNSAMPLE"> F  </i>
   <i type="logical" name="LCHARG"> F  </i>
   <i type="logical" name="LPARD"> F  </i>
   <i type="logical" name="LVTOT"> F  </i>
   <i type="logical" name="LVHAR"> F  </i>
   <i type="logical" name="LELF"> F  </i>
   <i type="logical" name="LOPTICS"> F  </i>
   <v name="STM">      0.00000000      0.00000000      0.00000000      0.00000000      0.00000000      0.00000000      0.00000000</v>
  </separator>
  <separator name="performance" >
   <i type="int" name="NPAR">     2</i>
   <i type="int" name="NSIM">     4</i>
   <i type="int" name="NBLK">    -1</i>
   <i type="logical" name="LPLANE"> T  </i>
   <i type="logical" name="LSCALAPACK"> T  </i>
   <i type="logical" name="LSCAAWARE"> F  </i>
   <i type="logical" name="LSCALU"> F  </i>
   <i type="logical" name="LASYNC"> F  </i>
   <i type="logical" name="LORBITALREAL"> F  </i>
  </separator>
  <separator name="miscellaneous" >
   <i type="int" name="IDIOT">     3</i>
   <i type="int" name="PHON_NSTRUCT">    -1</i>
   <i type="logical" name="LMUSIC"> F  </i>
   <v name="POMASS">     12.01100000</v>
   <v name="DARWINR">      0.00000000</v>
   <v name="DARWINV">      1.00000000</v>
   <i type="logical" name="LCORR"> T  </i>
  </separator>
  <i type="logical" name="GGA_COMPAT"> T  </i>
  <i type="logical" name="LBERRY"> F  </i>
  <i type="int" name="ICORELEVEL">     0</i>
  <i type="logical" name="LDAU"> F  </i>
  <i type="int" name="I_CONSTRAINED_M">     0</i>
  <separator name="electronic exchange-correlation" >
   <i type="string" name="GGA">--</i>
   <i type="int" name="VOSKOWN">     0</i>
   <i type="logical" name="LHFCALC"> F  </i>
   <i type="string" name="PRECFOCK"></i>
   <i type="logical" name="LSYMGRAD"> F  </i>
   <i type="logical" name="LHFONE"> F  </i>
   <i type="logical" name="LRHFCALC"> F  </i>
   <i type="logical" name="LTHOMAS"> F  </i>
   <i type="logical" name="LMODELHF"> F  </i>
   <i type="logical" name="LFOCKACE"> F  </i>
   <i name="ENCUT4O">     -1.00000000</i>
   <i type="int" name="EXXOEP">     0</i>
   <i type="int" name="FOURORBIT">     0</i>
   <i name="AEXX">      0.00000000</i>
   <i name="HFALPHA">      0.00000000</i>
   <i name="MCALPHA">      0.00000000</i>
   <i name="ALDAX">      1.00000000</i>
   <i name="AGGAX">      1.00000000</i>
   <i name="ALDAC">      1.00000000</i>
   <i name="AGGAC">      1.00000000</i>
   <i type="int" name="NKREDX">     1</i>
   <i type="int" name="NKREDY">     1</i>
   <i type="int" name="NKREDZ">     1</i>
   <i type="logical" name="SHIFTRED"> F  </i>
   <i type="logical" name="ODDONLY"> F  </i>
   <i type="logical" name="EVENONLY"> F  </i>
   <i type="int" name="LMAXFOCK">     0</i>
   <i type="int" name="NMAXFOCKAE">     0</i>
   <i type="logical" name="LFOCKAEDFT"> F  </i>
   <i name="HFSCREEN">      0.00000000</i>
   <i name="HFSCREENC">      0.00000000</i>
   <i type="int" name="NBANDSGWLOW">     0</i>
  </separator>
  <separator name="vdW DFT" >
   <i type="logical" name="LUSE_VDW"> F  </i>
   <i type="int" name="IVDW_NL">     1</i>
   <i type="logical" name="LSPIN_VDW"> F  </i>
   <i name="Zab_VDW">     -0.84910000</i>
   <i name="PARAM1">      0.12340000</i>
   <i name="PARAM2">      1.00000000</i>
   <i name="PARAM3">      0.00000000</i>
  </separator>
  <separator name="model GW" >
   <i type="int" name="MODEL_GW">     0</i>
   <i name="MODEL_EPS0">     31.63027863</i>
   <i name="MODEL_ALPHA">      1.00000000</i>
  </separator>
  <separator name="linear response parameters" >
   <i type="logical" name="LEPSILON"> F  </i>
   <i type="logical" name="LRPA"> F  </i>
   <i type="logical" name="LNABLA"> F  </i>
   <i type="logical" name="LVEL"> F  </i>
   <i name="CSHIFT">      0.10000000</i>
   <i name="OMEGAMAX">     -1.00000000</i>
   <i name="DEG_THRESHOLD">      0.00200000</i>
   <i name="RTIME">     -0.10000000</i>
   <i name="WPLASMAI">      0.00000000</i>
   <v name="DFIELD">      0.00000000      0.00000000      0.00000000</v>
   <v name="WPLASMA">      0.00000000      0.00000000      0.00000000      0.00000000      0.00000000      0.00000000      0.00000000      0.00000000      0.00000000</v>
  </separator>
  <separator name="orbital magnetization" >
   <i type="logical" name="NUCIND"> F  </i>
   <v name="MAGPOS">      0.00000000      0.00000000      0.00000000</v>
   <i type="logical" name="LNICSALL"> T  </i>
   <i type="logical" name="ORBITALMAG"> F  </i>
   <i type="logical" name="LMAGBLOCH"> F  </i>
   <i type="logical" name="LCHIMAG"> F  </i>
   <i type="logical" name="LGAUGE"> T  </i>
   <i type="int" name="MAGATOM">     0</i>
   <v name="MAGDIPOL">      0.00000000      0.00000000      0.00000000</v>
   <v name="AVECCONST">      0.00000000      0.00000000      0.00000000</v>
  </separator>
  <separator name="response functions" >
   <i type="logical" name="LALL_IN_ONE"> F  </i>
   <i type="int" name="IALL_IN_ONE">    -1</i>
   <i type="int" name="NBANDS_WAVE">    -1</i>
   <i type="logical" name="LFINITE_TEMPERATURE"> F  </i>
   <i type="logical" name="LADDER"> F  </i>
   <i type="logical" name="LRPAFORCE"> F  </i>
   <i type="logical" name="LFXC"> F  </i>
   <i type="logical" name="LHARTREE"> T  </i>
   <i type="int" name="IBSE">     0</i>
   <v type="int" name="KPOINT">    -1     0     0     0</v>
   <i type="logical" name="LTCTC"> F  </i>
   <i type="logical" name="LTCTE"> F  </i>
   <i type="logical" name="LTETE"> F  </i>
   <i type="logical" name="LTRIPLET"> F  </i>
   <i type="logical" name="LFXCEPS"> F  </i>
   <i type="logical" name="LFXHEG"> F  </i>
   <i type="int" name="NATURALO">     2</i>
   <i type="logical" name="LHOLEGF"> F  </i>
   <i type="logical" name="L2ORDER"> F  </i>
   <i type="logical" name="LDMP1"> F  </i>
   <i type="logical" name="LMP2LT"> F  </i>
   <i type="logical" name="LSMP2LT"> F  </i>
   <i type="logical" name="LGWLF"> F  </i>
   <i name="ENCUTGW">     -1.60000002</i>
   <i name="ENCUTGWSOFT">     -1.60000002</i>
   <i name="ENCUTLF">     -1.00000000</i>
   <i type="logical" name="LESF_SPLINES"> F  </i>
   <i type="int" name="LMAXMP2">    -1</i>
   <i name="SCISSOR">      0.00000000</i>
   <i type="int" name="NOMEGA">     0</i>
   <i type="int" name="NOMEGAR">     0</i>
   <i type="int" name="NBANDSGW">    -1</i>
   <i type="int" name="NBANDSO">    -1</i>
   <i type="int" name="NBANDSV">    -1</i>
   <i type="int" name="NELMGW">     1</i>
   <i type="int" name="NELMHF">     1</i>
   <i type="int" name="DIM">     3</i>
   <i type="int" name="IESPILON">     4</i>
   <i type="int" name="ANTIRES">     0</i>
   <i name="OMEGAMAX">    -30.00000000</i>
   <i name="OMEGAMIN">    -30.00000000</i>
   <i name="OMEGATL">   -200.00000000</i>
   <i type="int" name="OMEGAGRID">     0</i>
   <i name="CSHIFT">     -0.10000000</i>
   <i type="logical" name="LSELFENERGY"> F  </i>
   <i type="logical" name="LSPECTRAL"> F  </i>
   <i type="logical" name="LSPECTRALGW"> F  </i>
   <i type="logical" name="LSINGLES"> F  </i>
   <i type="logical" name="LFERMIGW"> F  </i>
   <i type="logical" name="ODDONLYGW"> F  </i>
   <i type="logical" name="EVENONLYGW"> F  </i>
   <i type="int" name="NKREDLFX">     1</i>
   <i type="int" name="NKREDLFY">     1</i>
   <i type="int" name="NKREDLFZ">     1</i>
   <i type="int" name="MAXMEM">  2800</i>
   <i type="int" name="TELESCOPE">     0</i>
   <i type="int" name="NTAUPAR">    -1</i>
   <i type="int" name="NOMEGAPAR">    -1</i>
   <i name="DAMP_NEWTON">      0.80000001</i>
   <i name="LAMBDA">      1.00000000</i>
  </separator>
  <separator name="External order field" >
   <i name="OFIELD_KAPPA">      0.00000000</i>
   <v name="OFIELD_K">      0.00000000      0.00000000      0.00000000</v>
   <i name="OFIELD_Q6_NEAR">      0.00000000</i>
   <i name="OFIELD_Q6_FAR">      0.00000000</i>
   <i name="OFIELD_A">      0.00000000</i>
  </separator>
  <separator name="optional k-points parameters" >
   <i type="int" name="KPOINTS_OPT_MODE">     1</i>
   <i type="logical" name="LKPOINTS_OPT"> F  </i>
  </separator>
 </parameters>
 <atominfo>
  <atoms>      18 </atoms>
  <types>       1 </types>
  <array name="atoms" >
   <dimension dim="1">ion</dimension>
   <field type="string">element</field>
   <field type="int">atomtype</field>
   <set>
    <rc><c>C </c><c>   1</c></rc>
    <rc><c>C </c><c>   1</c></rc>
    <rc><c>C </c><c>   1</c></rc>
    <rc><c>C </c><c>   1</c></rc>
    <rc><c>C </c><c>   1</c></rc>
    <rc><c>C </c><c>   1</c></rc>
    <rc><c>C </c><c>   1</c></rc>
    <rc><c>C </c><c>   1</c></rc>
    <rc><c>C </c><c>   1</c></rc>
    <rc><c>C </c><c>   1</c></rc>
    <rc><c>C </c><c>   1</c></rc>
    <rc><c>C </c><c>   1</c></rc>
    <rc><c>C </c><c>   1</c></rc>
    <rc><c>C </c><c>   1</c></rc>
    <rc><c>C </c><c>   1</c></rc>
    <rc><c>C </c><c>   1</c></rc>
    <rc><c>C </c><c>   1</c></rc>
    <rc><c>C </c><c>   1</c></rc>
   </set>
  </array>
  <array name="atomtypes" >
   <dimension dim="1">type</dimension>
   <field type="int">atomspertype</field>
   <field type="string">element</field>
   <field>mass</field>
   <field>valence</field>
   <field type="string">pseudopotential</field>
   <set>
    <rc><c>  18</c><c>C </c><c>     12.01100000</c><c>      4.00000000</c><c>  PAW_PBE C 08Apr2002                   </c></rc>
   </set>
  </array>
 </atominfo>
 <structure name="initialpos" >
  <crystal>
   <varray name="basis" >
    <v>       7.40170591       0.00000000       0.00000000 </v>
    <v>      -3.70085295       6.41006527       0.00000000 </v>
    <v>       0.00000000       0.00000000      20.00000000 </v>
   </varray>
   <i name="volume">    948.90835877 </i>
   <varray name="rec_basis" >
    <v>       0.13510399       0.07800233       0.00000000 </v>
    <v>       0.00000000       0.15600465       0.00000000 </v>
    <v>       0.00000000       0.00000000       0.05000000 </v>
   </varray>
  </crystal>
  <varray name="positions" >
   <v>       0.00057102       0.99843995       0.50000000 </v>
   <v>       0.33333333       0.00000000       0.50000000 </v>
   <v>       0.66666667       0.00000000       0.50000000 </v>
   <v>       0.00000000       0.33333333       0.50000000 </v>
   <v>       0.33333333       0.33333333       0.50000000 </v>
   <v>       0.66666667       0.33333333       0.50000000 </v>
   <v>       0.00000000       0.66666667       0.50000000 </v>
   <v>       0.33333333       0.66666667       0.50000000 </v>
   <v>       0.66666667       0.66666667       0.50000000 </v>
   <v>       0.22222222       0.11111111       0.50000000 </v>
   <v>       0.55555556       0.11111111       0.50000000 </v>
   <v>       0.88888889       0.11111111       0.50000000 </v>
   <v>       0.22222222       0.44444444       0.50000000 </v>
   <v>       0.55555556       0.44444444       0.50000000 </v>
   <v>       0.88888889       0.44444444       0.50000000 </v>
   <v>       0.22222222       0.77777778       0.50000000 </v>
   <v>       0.55555556       0.77777778       0.50000000 </v>
   <v>       0.88888889       0.77777778       0.50000000 </v>
  </varray>
 </structure>
 <calculation>
  <scstep>
   <time name="dav">    6.01    6.24</time>
   <time name="total">    6.10    6.33</time>
   <energy>
    <i name="alphaZ">     28.04858418 </i>
    <i name="ewald">  11638.87666378 </i>
    <i name="hartreedc"> -13553.18234112 </i>
    <i name="XCdc">    237.17775056 </i>
    <i name="pawpsdc">   1953.39683484 </i>
    <i name="pawaedc">  -1963.64613940 </i>
    <i name="eentropy">     -0.00828987 </i>
    <i name="bandstr">   -257.75020782 </i>
    <i name="atom">   2648.70517965 </i>
    <i name="e_fr_energy">    731.61803481 </i>
    <i name="e_wo_entrp">    731.62632468 </i>
    <i name="e_0_energy">    731.62217974 </i>
   </energy>
  </scstep>
  <scstep>
   <time name="dav">    8.00    7.14</time>
   <time name="total">    8.00    7.14</time>
   <energy>
    <i name="e_fr_energy">    -23.93114272 </i>
    <i name="e_wo_entrp">    -23.93085921 </i>
    <i name="e_0_energy">    -23.93100096 </i>
   </energy>
  </scstep>
  <scstep>
   <time name="dav">    6.44    6.66</time>
   <time name="total">    6.44    6.66</time>
   <energy>
    <i name="e_fr_energy">   -172.28490493 </i>
    <i name="e_wo_entrp">   -172.28344838 </i>
    <i name="e_0_energy">   -172.28417665 </i>
   </energy>
  </scstep>
  <scstep>
   <time name="dav">    6.33    6.58</time>
   <time name="total">    6.33    6.58</time>
   <energy>
    <i name="e_fr_energy">   -177.34530794 </i>
    <i name="e_wo_entrp">   -177.34325766 </i>
    <i name="e_0_energy">   -177.34428280 </i>
   </energy>
  </scstep>
  <scstep>
   <time name="dav">    7.33    7.63</time>
   <time name="total">    7.61    7.91</time>
   <energy>
    <i name="e_fr_energy">   -177.48397676 </i>
    <i name="e_wo_entrp">   -177.48194548 </i>
    <i name="e_0_energy">   -177.48296112 </i>
   </energy>
  </scstep>
  <scstep>
   <time name="dav">    5.98    6.21</time>
   <time name="total">    6.34    6.59</time>
   <energy>
    <i name="e_fr_energy">   -169.31628667 </i>
    <i name="e_wo_entrp">   -169.31419205 </i>
    <i name="e_0_energy">   -169.31523936 </i>
   </energy>
  </scstep>
  <scstep>
   <time name="dav">    6.01    5.06</time>
   <time name="total">    6.37    5.43</time>
   <energy>
    <i name="e_fr_energy">   -166.14852672 </i>
    <i name="e_wo_entrp">   -166.14640405 </i>
    <i name="e_0_energy">   -166.14746539 </i>
   </energy>
  </scstep>
  <scstep>
   <time name="dav">    6.25    6.48</time>
   <time name="total">    6.60    6.84</time>
   <energy>
    <i name="e_fr_energy">   -166.08544807 </i>
    <i name="e_wo_entrp">   -166.08333659 </i>
    <i name="e_0_energy">   -166.08439233 </i>
   </energy>
  </scstep>
  <scstep>
   <time name="dav">    6.66    6.90</time>
   <time name="total">    7.01    7.26</time>
   <energy>
    <i name="e_fr_energy">   -166.07276495 </i>
    <i name="e_wo_entrp">   -166.07065025 </i>
    <i name="e_0_energy">   -166.07170760 </i>
   </energy>
  </scstep>
  <scstep>
   <time name="dav">    5.84    6.05</time>
   <time name="total">    6.20    6.42</time>
   <energy>
    <i name="e_fr_energy">   -166.05418106 </i>
    <i name="e_wo_entrp">   -166.05206411 </i>
    <i name="e_0_energy">   -166.05312258 </i>
   </energy>
  </scstep>
  <scstep>
   <time name="dav">    5.76    5.97</time>
   <time name="total">    6.11    6.33</time>
   <energy>
    <i name="e_fr_energy">   -166.05742625 </i>
    <i name="e_wo_entrp">   -166.05531092 </i>
    <i name="e_0_energy">   -166.05636858 </i>
   </energy>
  </scstep>
  <scstep>
   <time name="dav">    6.00    5.09</time>
   <time name="total">    6.36    5.46</time>
   <energy>
    <i name="e_fr_energy">   -166.06216539 </i>
    <i name="e_wo_entrp">   -166.06005035 </i>
    <i name="e_0_energy">   -166.06110787 </i>
   </energy>
  </scstep>
  <scstep>
   <time name="dav">    5.71    5.91</time>
   <time name="total">    6.06    6.28</time>
   <energy>
    <i name="e_fr_energy">   -166.06631145 </i>
    <i name="e_wo_entrp">   -166.06419579 </i>
    <i name="e_0_energy">   -166.06525362 </i>
   </energy>
  </scstep>
  <scstep>
   <time name="dav">    5.65    5.85</time>
   <time name="total">    6.00    6.21</time>
   <energy>
    <i name="e_fr_energy">   -166.07018054 </i>
    <i name="e_wo_entrp">   -166.06806478 </i>
    <i name="e_0_energy">   -166.06912266 </i>
   </energy>
  </scstep>
  <scstep>
   <time name="dav">    5.87    6.08</time>
   <time name="total">    6.21    6.44</time>
   <energy>
    <i name="e_fr_energy">   -166.07153220 </i>
    <i name="e_wo_entrp">   -166.06941649 </i>
    <i name="e_0_energy">   -166.07047434 </i>
   </energy>
  </scstep>
  <scstep>
   <time name="dav">    6.02    6.24</time>
   <time name="total">    6.36    6.60</time>
   <energy>
    <i name="e_fr_energy">   -166.07167573 </i>
    <i name="e_wo_entrp">   -166.06956004 </i>
    <i name="e_0_energy">   -166.07061789 </i>
   </energy>
  </scstep>
  <scstep>
   <time name="dav">    5.75    4.82</time>
   <time name="total">    6.10    5.18</time>
   <energy>
    <i name="e_fr_energy">   -166.07189026 </i>
    <i name="e_wo_entrp">   -166.06977468 </i>
    <i name="e_0_energy">   -166.07083247 </i>
   </energy>
  </scstep>
  <scstep>
   <time name="dav">    5.17    5.35</time>
   <time name="total">    5.51    5.71</time>
   <energy>
    <i name="e_fr_energy">   -166.07193847 </i>
    <i name="e_wo_entrp">   -166.06982282 </i>
    <i name="e_0_energy">   -166.07088065 </i>
   </energy>
  </scstep>
  <scstep>
   <time name="dav">    5.02    5.20</time>
   <time name="total">    5.37    5.56</time>
   <energy>
    <i name="e_fr_energy">   -166.07197537 </i>
    <i name="e_wo_entrp">   -166.06985968 </i>
    <i name="e_0_energy">   -166.07091752 </i>
   </energy>
  </scstep>
  <scstep>
   <time name="dav">    4.79    4.97</time>
   <time name="total">    5.14    5.33</time>
   <energy>
    <i name="e_fr_energy">   -166.07200007 </i>
    <i name="e_wo_entrp">   -166.06988442 </i>
    <i name="e_0_energy">   -166.07094224 </i>
   </energy>
  </scstep>
  <scstep>
   <time name="dav">    3.94    4.08</time>
   <time name="total">    4.31    4.47</time>
   <energy>
    <i name="e_fr_energy">   -166.07200941 </i>
    <i name="e_wo_entrp">   -166.06989374 </i>
    <i name="e_0_energy">   -166.07095157 </i>
   </energy>
  </scstep>
  <scstep>
   <time name="dav">    3.89    4.04</time>
   <time name="total">    4.26    4.42</time>
   <energy>
    <i name="e_fr_energy">   -166.07201265 </i>
    <i name="e_wo_entrp">   -166.06989700 </i>
    <i name="e_0_energy">   -166.07095482 </i>
   </energy>
  </scstep>
  <scstep>
   <time name="dav">    4.05    3.05</time>
   <time name="total">    4.14    3.14</time>
   <energy>
    <i name="alphaZ">     28.04858418 </i>
    <i name="ewald">  11638.87666378 </i>
    <i name="hartreedc"> -13861.52539120 </i>
    <i name="XCdc">    247.81450254 </i>
    <i name="pawpsdc">   7452.96630328 </i>
    <i name="pawaedc">  -7465.22974717 </i>
    <i name="eentropy">     -0.00211565 </i>
    <i name="bandstr">   -855.72599245 </i>
    <i name="atom">   2648.70517965 </i>
    <i name="e_fr_energy">   -166.07201304 </i>
    <i name="e_wo_entrp">   -166.06989739 </i>
    <i name="e_0_energy">   -166.07095521 </i>
   </energy>
  </scstep>
  <structure>
   <crystal>
    <varray name="basis" >
     <v>       7.40170591       0.00000000       0.00000000 </v>
     <v>      -3.70085295       6.41006527       0.00000000 </v>
     <v>       0.00000000       0.00000000      20.00000000 </v>
    </varray>
    <i name="volume">    948.90835877 </i>
    <varray name="rec_basis" >
     <v>       0.13510399       0.07800233       0.00000000 </v>
     <v>       0.00000000       0.15600465       0.00000000 </v>
     <v>       0.00000000       0.00000000       0.05000000 </v>
    </varray>
   </crystal>
   <varray name="positions" >
    <v>       0.00057102       0.99843995       0.50000000 </v>
    <v>       0.33333333       0.00000000       0.50000000 </v>
    <v>       0.66666667       0.00000000       0.50000000 </v>
    <v>       0.00000000       0.33333333       0.50000000 </v>
    <v>       0.33333333       0.33333333       0.50000000 </v>
    <v>       0.66666667       0.33333333       0.50000000 </v>
    <v>       0.00000000       0.66666667       0.50000000 </v>
    <v>       0.33333333       0.66666667       0.50000000 </v>
    <v>       0.66666667       0.66666667       0.50000000 </v>
    <v>       0.22222222       0.11111111       0.50000000 </v>
    <v>       0.55555556       0.11111111       0.50000000 </v>
    <v>       0.88888889       0.11111111       0.50000000 </v>
    <v>       0.22222222       0.44444444       0.50000000 </v>
    <v>       0.55555556       0.44444444       0.50000000 </v>
    <v>       0.88888889       0.44444444       0.50000000 </v>
    <v>       0.22222222       0.77777778       0.50000000 </v>
    <v>       0.55555556       0.77777778       0.50000000 </v>
    <v>       0.88888889       0.77777778       0.50000000 </v>
   </varray>
  </structure>
  <varray name="forces" >
   <v>      -0.58389124       0.59854891      -0.00000000 </v>
   <v>       0.03686242       0.01137030       0.00000000 </v>
   <v>       0.06275224       0.03735315      -0.00000000 </v>
   <v>       0.01294579      -0.07589159      -0.00000000 </v>
   <v>      -0.02471874       0.01350696      -0.00000000 </v>
   <v>       0.02964882      -0.02997719      -0.00000000 </v>
   <v>       0.04034841      -0.05123384      -0.00000000 </v>
   <v>       0.02962216      -0.02997729      -0.00000000 </v>
   <v>      -0.05133782      -0.01245257      -0.00000000 </v>
   <v>       0.14837981      -0.08371258       0.00000000 </v>
   <v>      -0.00066779       0.02454744      -0.00000000 </v>
   <v>       0.24359851      -0.18674395       0.00000000 </v>
   <v>       0.02138588       0.03107230      -0.00000000 </v>
   <v>      -0.02836844       0.01706627      -0.00000000 </v>
   <v>      -0.00809985      -0.00321490       0.00000000 </v>
   <v>      -0.04033806       0.01395392      -0.00000000 </v>
   <v>       0.00523865      -0.03100816      -0.00000000 </v>
   <v>       0.10663926      -0.24320719      -0.00000000 </v>
  </varray>
  <varray name="stress" >
   <v>      -0.21149690       0.06278963       0.00000000 </v>
   <v>       0.06278964      -0.06992397       0.00000000 </v>
   <v>       0.00000000       0.00000000      -0.56564293 </v>
  </varray>
  <energy>
   <i name="e_fr_energy">   -166.07201304 </i>
   <i name="e_wo_entrp">   -166.06989739 </i>
   <i name="e_0_energy">   -166.07095521 </i>
  </energy>
  <time name="totalsc">  144.11  143.66</time>
  <eigenvalues>
   <array>
    <dimension dim="1">band</dimension>
    <dimension dim="2">kpoint</dimension>
    <dimension dim="3">spin</dimension>
    <field>eigene</field>
    <field>occ</field>
    <set>
     <set comment="spin 1">
      <set comment="kpoint 1">
       <r>  -22.2560    1.0000 </r>
       <r>  -19.7012    1.0000 </r>
       <r>  -19.6784    1.0000 </r>
       <r>  -19.6750    1.0000 </r>
       <r>  -19.6726    1.0000 </r>
       <r>  -19.6708    1.0000 </r>
       <r>  -19.6426    1.0000 </r>
       <r>  -15.3581    1.0000 </r>
       <r>  -15.3467    1.0000 </r>
       <r>  -15.3407    1.0000 </r>
       <r>  -15.3179    1.0000 </r>
       <r>  -13.2932    1.0000 </r>
       <r>  -13.2864    1.0000 </r>
       <r>  -12.4042    1.0000 </r>
       <r>  -12.3887    1.0000 </r>
       <r>  -12.3755    1.0000 </r>
       <r>  -12.3737    1.0000 </r>
       <r>  -12.3651    1.0000 </r>
       <r>  -12.3403    1.0000 </r>
       <r>  -10.3600    1.0000 </r>
       <r>   -8.5620    1.0000 </r>
       <r>   -8.5285    1.0000 </r>
       <r>   -8.5240    1.0000 </r>
       <r>   -8.5235    1.0000 </r>
       <r>   -8.5180    1.0000 </r>
       <r>   -8.4850    1.0000 </r>
       <r>   -7.3949    1.0000 </r>
       <r>   -7.3733    1.0000 </r>
       <r>   -7.3725    1.0000 </r>
       <r>   -7.3704    1.0000 </r>
       <r>   -7.3695    1.0000 </r>
       <r>   -7.3450    1.0000 </r>
       <r>   -5.8074    1.0000 </r>
       <r>   -5.7608    1.0000 </r>
       <r>   -2.7750    0.7103 </r>
       <r>   -2.7577    0.5266 </r>
       <r>   -2.7553    0.4991 </r>
       <r>   -2.7330    0.2640 </r>
       <r>    0.5196    0.0000 </r>
       <r>    1.3119    0.0000 </r>
       <r>    1.6354    0.0000 </r>
       <r>    2.1131    0.0000 </r>
       <r>    2.1397    0.0000 </r>
       <r>    2.1437    0.0000 </r>
       <r>    2.1459    0.0000 </r>
       <r>    2.1465    0.0000 </r>
      </set>
      <set comment="kpoint 2">
       <r>  -22.2025    1.0000 </r>
       <r>  -20.3495    1.0000 </r>
       <r>  -19.9949    1.0000 </r>
       <r>  -19.9736    1.0000 </r>
       <r>  -19.2733    1.0000 </r>
       <r>  -19.2517    1.0000 </r>
       <r>  -18.9060    1.0000 </r>
       <r>  -16.0059    1.0000 </r>
       <r>  -15.9853    1.0000 </r>
       <r>  -14.9227    1.0000 </r>
       <r>  -14.9031    1.0000 </r>
       <r>  -13.6001    1.0000 </r>
       <r>  -12.9785    1.0000 </r>
       <r>  -12.9666    1.0000 </r>
       <r>  -12.9605    1.0000 </r>
       <r>  -12.9456    1.0000 </r>
       <r>  -11.7437    1.0000 </r>
       <r>  -11.7241    1.0000 </r>
       <r>  -11.1196    1.0000 </r>
       <r>  -10.2960    1.0000 </r>
       <r>   -8.8787    1.0000 </r>
       <r>   -8.8572    1.0000 </r>
       <r>   -8.8215    1.0000 </r>
       <r>   -8.5210    1.0000 </r>
       <r>   -8.5010    1.0000 </r>
       <r>   -8.1272    1.0000 </r>
       <r>   -8.1269    1.0000 </r>
       <r>   -7.7232    1.0000 </r>
       <r>   -7.7046    1.0000 </r>
       <r>   -6.9323    1.0000 </r>
       <r>   -6.9140    1.0000 </r>
       <r>   -6.5557    1.0000 </r>
       <r>   -6.0141    1.0000 </r>
       <r>   -5.8898    1.0000 </r>
       <r>   -3.5363    1.0000 </r>
       <r>   -3.5172    1.0000 </r>
       <r>   -2.0154    0.0000 </r>
       <r>   -1.9934    0.0000 </r>
       <r>    0.5923    0.0000 </r>
       <r>    0.8721    0.0000 </r>
       <r>    1.3855    0.0000 </r>
       <r>    1.4612    0.0000 </r>
       <r>    1.4886    0.0000 </r>
       <r>    1.7098    0.0000 </r>
       <r>    2.6299    0.0000 </r>
       <r>    2.7492    0.0000 </r>
      </set>
      <set comment="kpoint 3">
       <r>  -22.2025    1.0000 </r>
       <r>  -20.3496    1.0000 </r>
       <r>  -19.9920    1.0000 </r>
       <r>  -19.9764    1.0000 </r>
       <r>  -19.2704    1.0000 </r>
       <r>  -19.2544    1.0000 </r>
       <r>  -18.9061    1.0000 </r>
       <r>  -16.0042    1.0000 </r>
       <r>  -15.9874    1.0000 </r>
       <r>  -14.9206    1.0000 </r>
       <r>  -14.9042    1.0000 </r>
       <r>  -13.6033    1.0000 </r>
       <r>  -12.9783    1.0000 </r>
       <r>  -12.9664    1.0000 </r>
       <r>  -12.9601    1.0000 </r>
       <r>  -12.9442    1.0000 </r>
       <r>  -11.7396    1.0000 </r>
       <r>  -11.7230    1.0000 </r>
       <r>  -11.1242    1.0000 </r>
       <r>  -10.2960    1.0000 </r>
       <r>   -8.8794    1.0000 </r>
       <r>   -8.8588    1.0000 </r>
       <r>   -8.8187    1.0000 </r>
       <r>   -8.5242    1.0000 </r>
       <r>   -8.5040    1.0000 </r>
       <r>   -8.1261    1.0000 </r>
       <r>   -8.1217    1.0000 </r>
       <r>   -7.7216    1.0000 </r>
       <r>   -7.7076    1.0000 </r>
       <r>   -6.9306    1.0000 </r>
       <r>   -6.9169    1.0000 </r>
       <r>   -6.5537    1.0000 </r>
       <r>   -6.0220    1.0000 </r>
       <r>   -5.8819    1.0000 </r>
       <r>   -3.5341    1.0000 </r>
       <r>   -3.5199    1.0000 </r>
       <r>   -2.0122    0.0000 </r>
       <r>   -1.9961    0.0000 </r>
       <r>    0.5923    0.0000 </r>
       <r>    0.8672    0.0000 </r>
       <r>    1.3855    0.0000 </r>
       <r>    1.4665    0.0000 </r>
       <r>    1.4864    0.0000 </r>
       <r>    1.7099    0.0000 </r>
       <r>    2.6299    0.0000 </r>
       <r>    2.7550    0.0000 </r>
      </set>
      <set comment="kpoint 4">
       <r>  -22.2025    1.0000 </r>
       <r>  -20.3490    1.0000 </r>
       <r>  -19.9880    1.0000 </r>
       <r>  -19.9815    1.0000 </r>
       <r>  -19.2661    1.0000 </r>
       <r>  -19.2589    1.0000 </r>
       <r>  -18.9056    1.0000 </r>
       <r>  -16.0010    1.0000 </r>
       <r>  -15.9887    1.0000 </r>
       <r>  -14.9209    1.0000 </r>
       <r>  -14.9081    1.0000 </r>
       <r>  -13.5903    1.0000 </r>
       <r>  -12.9834    1.0000 </r>
       <r>  -12.9757    1.0000 </r>
       <r>  -12.9517    1.0000 </r>
       <r>  -12.9480    1.0000 </r>
       <r>  -11.7467    1.0000 </r>
       <r>  -11.7340    1.0000 </r>
       <r>  -11.1079    1.0000 </r>
       <r>  -10.2960    1.0000 </r>
       <r>   -8.8703    1.0000 </r>
       <r>   -8.8504    1.0000 </r>
       <r>   -8.8381    1.0000 </r>
       <r>   -8.5133    1.0000 </r>
       <r>   -8.4904    1.0000 </r>
       <r>   -8.1438    1.0000 </r>
       <r>   -8.1290    1.0000 </r>
       <r>   -7.7156    1.0000 </r>
       <r>   -7.7089    1.0000 </r>
       <r>   -6.9250    1.0000 </r>
       <r>   -6.9180    1.0000 </r>
       <r>   -6.5611    1.0000 </r>
       <r>   -5.9832    1.0000 </r>
       <r>   -5.9210    1.0000 </r>
       <r>   -3.5296    1.0000 </r>
       <r>   -3.5230    1.0000 </r>
       <r>   -2.0083    0.0000 </r>
       <r>   -2.0017    0.0000 </r>
       <r>    0.5923    0.0000 </r>
       <r>    0.8854    0.0000 </r>
       <r>    1.3855    0.0000 </r>
       <r>    1.4665    0.0000 </r>
       <r>    1.4745    0.0000 </r>
       <r>    1.7098    0.0000 </r>
       <r>    2.6299    0.0000 </r>
       <r>    2.7523    0.0000 </r>
      </set>
      <set comment="kpoint 5">
       <r>  -22.0420    1.0000 </r>
       <r>  -20.9269    1.0000 </r>
       <r>  -20.2033    1.0000 </r>
       <r>  -20.1820    1.0000 </r>
       <r>  -18.7663    1.0000 </r>
       <r>  -18.7446    1.0000 </r>
       <r>  -18.0629    1.0000 </r>
       <r>  -16.7561    1.0000 </r>
       <r>  -16.7347    1.0000 </r>
       <r>  -14.7559    1.0000 </r>
       <r>  -14.6329    1.0000 </r>
       <r>  -14.6142    1.0000 </r>
       <r>  -13.5071    1.0000 </r>
       <r>  -13.4897    1.0000 </r>
       <r>  -12.1955    1.0000 </r>
       <r>  -12.1736    1.0000 </r>
       <r>  -11.1059    1.0000 </r>
       <r>  -11.0862    1.0000 </r>
       <r>  -10.1047    1.0000 </r>
       <r>   -9.8633    1.0000 </r>
       <r>   -9.5079    1.0000 </r>
       <r>   -9.4853    1.0000 </r>
       <r>   -9.0351    1.0000 </r>
       <r>   -8.7916    1.0000 </r>
       <r>   -8.7723    1.0000 </r>
       <r>   -8.7543    1.0000 </r>
       <r>   -7.9544    1.0000 </r>
       <r>   -7.9358    1.0000 </r>
       <r>   -7.6671    1.0000 </r>
       <r>   -6.6280    1.0000 </r>
       <r>   -6.3870    1.0000 </r>
       <r>   -6.3689    1.0000 </r>
       <r>   -6.2100    1.0000 </r>
       <r>   -5.7631    1.0000 </r>
       <r>   -4.3083    1.0000 </r>
       <r>   -4.2899    1.0000 </r>
       <r>   -1.2943    0.0000 </r>
       <r>   -1.2707    0.0000 </r>
       <r>   -0.2414    0.0000 </r>
       <r>    0.7752    0.0000 </r>
       <r>    0.8022    0.0000 </r>
       <r>    0.8102    0.0000 </r>
       <r>    1.6063    0.0000 </r>
       <r>    1.9333    0.0000 </r>
       <r>    2.3341    0.0000 </r>
       <r>    2.8513    0.0000 </r>
      </set>
      <set comment="kpoint 6">
       <r>  -22.0420    1.0000 </r>
       <r>  -20.9270    1.0000 </r>
       <r>  -20.2004    1.0000 </r>
       <r>  -20.1848    1.0000 </r>
       <r>  -18.7635    1.0000 </r>
       <r>  -18.7474    1.0000 </r>
       <r>  -18.0627    1.0000 </r>
       <r>  -16.7540    1.0000 </r>
       <r>  -16.7372    1.0000 </r>
       <r>  -14.7595    1.0000 </r>
       <r>  -14.6303    1.0000 </r>
       <r>  -14.6149    1.0000 </r>
       <r>  -13.5042    1.0000 </r>
       <r>  -13.4901    1.0000 </r>
       <r>  -12.1933    1.0000 </r>
       <r>  -12.1770    1.0000 </r>
       <r>  -11.1010    1.0000 </r>
       <r>  -11.0839    1.0000 </r>
       <r>  -10.1047    1.0000 </r>
       <r>   -9.8688    1.0000 </r>
       <r>   -9.5081    1.0000 </r>
       <r>   -9.4883    1.0000 </r>
       <r>   -9.0306    1.0000 </r>
       <r>   -8.7911    1.0000 </r>
       <r>   -8.7770    1.0000 </r>
       <r>   -8.7580    1.0000 </r>
       <r>   -7.9528    1.0000 </r>
       <r>   -7.9388    1.0000 </r>
       <r>   -7.6609    1.0000 </r>
       <r>   -6.6365    1.0000 </r>
       <r>   -6.3853    1.0000 </r>
       <r>   -6.3717    1.0000 </r>
       <r>   -6.2012    1.0000 </r>
       <r>   -5.7599    1.0000 </r>
       <r>   -4.3063    1.0000 </r>
       <r>   -4.2926    1.0000 </r>
       <r>   -1.2907    0.0000 </r>
       <r>   -1.2735    0.0000 </r>
       <r>   -0.2475    0.0000 </r>
       <r>    0.7802    0.0000 </r>
       <r>    0.7998    0.0000 </r>
       <r>    0.8102    0.0000 </r>
       <r>    1.6063    0.0000 </r>
       <r>    1.9333    0.0000 </r>
       <r>    2.3341    0.0000 </r>
       <r>    2.8513    0.0000 </r>
      </set>
      <set comment="kpoint 7">
       <r>  -22.0419    1.0000 </r>
       <r>  -20.9265    1.0000 </r>
       <r>  -20.1964    1.0000 </r>
       <r>  -20.1900    1.0000 </r>
       <r>  -18.7591    1.0000 </r>
       <r>  -18.7517    1.0000 </r>
       <r>  -18.0632    1.0000 </r>
       <r>  -16.7499    1.0000 </r>
       <r>  -16.7393    1.0000 </r>
       <r>  -14.7471    1.0000 </r>
       <r>  -14.6318    1.0000 </r>
       <r>  -14.6200    1.0000 </r>
       <r>  -13.5076    1.0000 </r>
       <r>  -13.4974    1.0000 </r>
       <r>  -12.1852    1.0000 </r>
       <r>  -12.1790    1.0000 </r>
       <r>  -11.1128    1.0000 </r>
       <r>  -11.0986    1.0000 </r>
       <r>  -10.1049    1.0000 </r>
       <r>   -9.8494    1.0000 </r>
       <r>   -9.4991    1.0000 </r>
       <r>   -9.4827    1.0000 </r>
       <r>   -9.0489    1.0000 </r>
       <r>   -8.7928    1.0000 </r>
       <r>   -8.7619    1.0000 </r>
       <r>   -8.7408    1.0000 </r>
       <r>   -7.9468    1.0000 </r>
       <r>   -7.9400    1.0000 </r>
       <r>   -7.6853    1.0000 </r>
       <r>   -6.6027    1.0000 </r>
       <r>   -6.3798    1.0000 </r>
       <r>   -6.3730    1.0000 </r>
       <r>   -6.2363    1.0000 </r>
       <r>   -5.7718    1.0000 </r>
       <r>   -4.3016    1.0000 </r>
       <r>   -4.2948    1.0000 </r>
       <r>   -1.2871    0.0000 </r>
       <r>   -1.2805    0.0000 </r>
       <r>   -0.2243    0.0000 </r>
       <r>    0.7815    0.0000 </r>
       <r>    0.7890    0.0000 </r>
       <r>    0.8102    0.0000 </r>
       <r>    1.6062    0.0000 </r>
       <r>    1.9333    0.0000 </r>
       <r>    2.3341    0.0000 </r>
       <r>    2.8512    0.0000 </r>
      </set>
      <set comment="kpoint 8">
       <r>  -21.7751    1.0000 </r>
       <r>  -21.4029    1.0000 </r>
       <r>  -20.3079    1.0000 </r>
       <r>  -20.2866    1.0000 </r>
       <r>  -18.1692    1.0000 </r>
       <r>  -18.1476    1.0000 </r>
       <r>  -17.4925    1.0000 </r>
       <r>  -17.4708    1.0000 </r>
       <r>  -17.2278    1.0000 </r>
       <r>  -15.7484    1.0000 </r>
       <r>  -14.3302    1.0000 </r>
       <r>  -14.3130    1.0000 </r>
       <r>  -13.9587    1.0000 </r>
       <r>  -13.9413    1.0000 </r>
       <r>  -11.2714    1.0000 </r>
       <r>  -11.2482    1.0000 </r>
       <r>  -10.6033    1.0000 </r>
       <r>  -10.5859    1.0000 </r>
       <r>  -10.3400    1.0000 </r>
       <r>  -10.3166    1.0000 </r>
       <r>   -9.7877    1.0000 </r>
       <r>   -9.3483    1.0000 </r>
       <r>   -9.1445    1.0000 </r>
       <r>   -9.0973    1.0000 </r>
       <r>   -9.0873    1.0000 </r>
       <r>   -8.6495    1.0000 </r>
       <r>   -8.0709    1.0000 </r>
       <r>   -8.0522    1.0000 </r>
       <r>   -7.5434    1.0000 </r>
       <r>   -7.1633    1.0000 </r>
       <r>   -6.6586    1.0000 </r>
       <r>   -5.7564    1.0000 </r>
       <r>   -5.7385    1.0000 </r>
       <r>   -5.1958    1.0000 </r>
       <r>   -5.0564    1.0000 </r>
       <r>   -5.0380    1.0000 </r>
       <r>   -0.9746    0.0000 </r>
       <r>   -0.5968    0.0000 </r>
       <r>   -0.5720    0.0000 </r>
       <r>    0.0897    0.0000 </r>
       <r>    0.1160    0.0000 </r>
       <r>    1.1735    0.0000 </r>
       <r>    1.6817    0.0000 </r>
       <r>    1.9737    0.0000 </r>
       <r>    2.3057    0.0000 </r>
       <r>    2.4867    0.0000 </r>
      </set>
      <set comment="kpoint 9">
       <r>  -21.7753    1.0000 </r>
       <r>  -21.4029    1.0000 </r>
       <r>  -20.3049    1.0000 </r>
       <r>  -20.2893    1.0000 </r>
       <r>  -18.1667    1.0000 </r>
       <r>  -18.1505    1.0000 </r>
       <r>  -17.4899    1.0000 </r>
       <r>  -17.4736    1.0000 </r>
       <r>  -17.2261    1.0000 </r>
       <r>  -15.7530    1.0000 </r>
       <r>  -14.3275    1.0000 </r>
       <r>  -14.3138    1.0000 </r>
       <r>  -13.9559    1.0000 </r>
       <r>  -13.9417    1.0000 </r>
       <r>  -11.2696    1.0000 </r>
       <r>  -11.2518    1.0000 </r>
       <r>  -10.5965    1.0000 </r>
       <r>  -10.5809    1.0000 </r>
       <r>  -10.3396    1.0000 </r>
       <r>  -10.3201    1.0000 </r>
       <r>   -9.7876    1.0000 </r>
       <r>   -9.3479    1.0000 </r>
       <r>   -9.1396    1.0000 </r>
       <r>   -9.1060    1.0000 </r>
       <r>   -9.0919    1.0000 </r>
       <r>   -8.6556    1.0000 </r>
       <r>   -8.0693    1.0000 </r>
       <r>   -8.0552    1.0000 </r>
       <r>   -7.5503    1.0000 </r>
       <r>   -7.1570    1.0000 </r>
       <r>   -6.6503    1.0000 </r>
       <r>   -5.7548    1.0000 </r>
       <r>   -5.7413    1.0000 </r>
       <r>   -5.1913    1.0000 </r>
       <r>   -5.0544    1.0000 </r>
       <r>   -5.0404    1.0000 </r>
       <r>   -0.9826    0.0000 </r>
       <r>   -0.5925    0.0000 </r>
       <r>   -0.5746    0.0000 </r>
       <r>    0.0942    0.0000 </r>
       <r>    0.1135    0.0000 </r>
       <r>    1.1735    0.0000 </r>
       <r>    1.6817    0.0000 </r>
       <r>    1.9737    0.0000 </r>
       <r>    2.3057    0.0000 </r>
       <r>    2.4867    0.0000 </r>
      </set>
      <set comment="kpoint 10">
       <r>  -21.7752    1.0000 </r>
       <r>  -21.4025    1.0000 </r>
       <r>  -20.3009    1.0000 </r>
       <r>  -20.2946    1.0000 </r>
       <r>  -18.1623    1.0000 </r>
       <r>  -18.1545    1.0000 </r>
       <r>  -17.4856    1.0000 </r>
       <r>  -17.4765    1.0000 </r>
       <r>  -17.2314    1.0000 </r>
       <r>  -15.7358    1.0000 </r>
       <r>  -14.3300    1.0000 </r>
       <r>  -14.3199    1.0000 </r>
       <r>  -13.9584    1.0000 </r>
       <r>  -13.9485    1.0000 </r>
       <r>  -11.2609    1.0000 </r>
       <r>  -11.2517    1.0000 </r>
       <r>  -10.6175    1.0000 </r>
       <r>  -10.6018    1.0000 </r>
       <r>  -10.3304    1.0000 </r>
       <r>  -10.3183    1.0000 </r>
       <r>   -9.7882    1.0000 </r>
       <r>   -9.3489    1.0000 </r>
       <r>   -9.1549    1.0000 </r>
       <r>   -9.0853    1.0000 </r>
       <r>   -9.0677    1.0000 </r>
       <r>   -8.6316    1.0000 </r>
       <r>   -8.0632    1.0000 </r>
       <r>   -8.0564    1.0000 </r>
       <r>   -7.5213    1.0000 </r>
       <r>   -7.1851    1.0000 </r>
       <r>   -6.6811    1.0000 </r>
       <r>   -5.7495    1.0000 </r>
       <r>   -5.7430    1.0000 </r>
       <r>   -5.2086    1.0000 </r>
       <r>   -5.0495    1.0000 </r>
       <r>   -5.0420    1.0000 </r>
       <r>   -0.9540    0.0000 </r>
       <r>   -0.5897    0.0000 </r>
       <r>   -0.5826    0.0000 </r>
       <r>    0.0966    0.0000 </r>
       <r>    0.1037    0.0000 </r>
       <r>    1.1734    0.0000 </r>
       <r>    1.6816    0.0000 </r>
       <r>    1.9736    0.0000 </r>
       <r>    2.3057    0.0000 </r>
       <r>    2.4865    0.0000 </r>
      </set>
      <set comment="kpoint 11">
       <r>  -22.0954    1.0000 </r>
       <r>  -20.6201    1.0000 </r>
       <r>  -20.6023    1.0000 </r>
       <r>  -19.5312    1.0000 </r>
       <r>  -19.5070    1.0000 </r>
       <r>  -18.4644    1.0000 </r>
       <r>  -18.4457    1.0000 </r>
       <r>  -16.7783    1.0000 </r>
       <r>  -16.1681    1.0000 </r>
       <r>  -15.2270    1.0000 </r>
       <r>  -14.2640    1.0000 </r>
       <r>  -14.1758    1.0000 </r>
       <r>  -14.1488    1.0000 </r>
       <r>  -12.5966    1.0000 </r>
       <r>  -12.3081    1.0000 </r>
       <r>  -12.2919    1.0000 </r>
       <r>  -12.2762    1.0000 </r>
       <r>  -10.5072    1.0000 </r>
       <r>  -10.4732    1.0000 </r>
       <r>  -10.1683    1.0000 </r>
       <r>   -9.2053    1.0000 </r>
       <r>   -9.1721    1.0000 </r>
       <r>   -9.1268    1.0000 </r>
       <r>   -9.1071    1.0000 </r>
       <r>   -8.4328    1.0000 </r>
       <r>   -8.4188    1.0000 </r>
       <r>   -8.0852    1.0000 </r>
       <r>   -8.0540    1.0000 </r>
       <r>   -7.2044    1.0000 </r>
       <r>   -7.1823    1.0000 </r>
       <r>   -6.4290    1.0000 </r>
       <r>   -6.1096    1.0000 </r>
       <r>   -6.1081    1.0000 </r>
       <r>   -6.0946    1.0000 </r>
       <r>   -4.2517    1.0000 </r>
       <r>   -3.9096    1.0000 </r>
       <r>   -1.6964    0.0000 </r>
       <r>   -1.2746    0.0000 </r>
       <r>    0.2573    0.0000 </r>
       <r>    0.2755    0.0000 </r>
       <r>    0.7376    0.0000 </r>
       <r>    1.5327    0.0000 </r>
       <r>    1.8588    0.0000 </r>
       <r>    2.0052    0.0000 </r>
       <r>    2.0343    0.0000 </r>
       <r>    2.7775    0.0000 </r>
      </set>
      <set comment="kpoint 12">
       <r>  -22.0954    1.0000 </r>
       <r>  -20.6135    1.0000 </r>
       <r>  -20.6088    1.0000 </r>
       <r>  -19.5228    1.0000 </r>
       <r>  -19.5165    1.0000 </r>
       <r>  -18.4573    1.0000 </r>
       <r>  -18.4524    1.0000 </r>
       <r>  -16.7788    1.0000 </r>
       <r>  -16.1602    1.0000 </r>
       <r>  -15.2440    1.0000 </r>
       <r>  -14.2554    1.0000 </r>
       <r>  -14.1642    1.0000 </r>
       <r>  -14.1485    1.0000 </r>
       <r>  -12.6073    1.0000 </r>
       <r>  -12.3140    1.0000 </r>
       <r>  -12.3091    1.0000 </r>
       <r>  -12.2645    1.0000 </r>
       <r>  -10.4964    1.0000 </r>
       <r>  -10.4746    1.0000 </r>
       <r>  -10.1684    1.0000 </r>
       <r>   -9.1787    1.0000 </r>
       <r>   -9.1738    1.0000 </r>
       <r>   -9.1318    1.0000 </r>
       <r>   -9.1131    1.0000 </r>
       <r>   -8.4285    1.0000 </r>
       <r>   -8.4240    1.0000 </r>
       <r>   -8.0887    1.0000 </r>
       <r>   -8.0626    1.0000 </r>
       <r>   -7.1933    1.0000 </r>
       <r>   -7.1873    1.0000 </r>
       <r>   -6.4037    1.0000 </r>
       <r>   -6.1356    1.0000 </r>
       <r>   -6.1100    1.0000 </r>
       <r>   -6.1005    1.0000 </r>
       <r>   -4.2594    1.0000 </r>
       <r>   -3.8966    1.0000 </r>
       <r>   -1.7141    0.0000 </r>
       <r>   -1.2627    0.0000 </r>
       <r>    0.2651    0.0000 </r>
       <r>    0.2849    0.0000 </r>
       <r>    0.7376    0.0000 </r>
       <r>    1.5327    0.0000 </r>
       <r>    1.8588    0.0000 </r>
       <r>    2.0050    0.0000 </r>
       <r>    2.0147    0.0000 </r>
       <r>    2.7775    0.0000 </r>
      </set>
      <set comment="kpoint 13">
       <r>  -22.0954    1.0000 </r>
       <r>  -20.6176    1.0000 </r>
       <r>  -20.6046    1.0000 </r>
       <r>  -19.5286    1.0000 </r>
       <r>  -19.5108    1.0000 </r>
       <r>  -18.4617    1.0000 </r>
       <r>  -18.4480    1.0000 </r>
       <r>  -16.7794    1.0000 </r>
       <r>  -16.1569    1.0000 </r>
       <r>  -15.2504    1.0000 </r>
       <r>  -14.2499    1.0000 </r>
       <r>  -14.1667    1.0000 </r>
       <r>  -14.1436    1.0000 </r>
       <r>  -12.6114    1.0000 </r>
       <r>  -12.3203    1.0000 </r>
       <r>  -12.3085    1.0000 </r>
       <r>  -12.2629    1.0000 </r>
       <r>  -10.4980    1.0000 </r>
       <r>  -10.4696    1.0000 </r>
       <r>  -10.1685    1.0000 </r>
       <r>   -9.1800    1.0000 </r>
       <r>   -9.1635    1.0000 </r>
       <r>   -9.1348    1.0000 </r>
       <r>   -9.1141    1.0000 </r>
       <r>   -8.4316    1.0000 </r>
       <r>   -8.4212    1.0000 </r>
       <r>   -8.0922    1.0000 </r>
       <r>   -8.0635    1.0000 </r>
       <r>   -7.1972    1.0000 </r>
       <r>   -7.1809    1.0000 </r>
       <r>   -6.3934    1.0000 </r>
       <r>   -6.1461    1.0000 </r>
       <r>   -6.1125    1.0000 </r>
       <r>   -6.1009    1.0000 </r>
       <r>   -4.2624    1.0000 </r>
       <r>   -3.8917    1.0000 </r>
       <r>   -1.7207    0.0000 </r>
       <r>   -1.2581    0.0000 </r>
       <r>    0.2685    0.0000 </r>
       <r>    0.2878    0.0000 </r>
       <r>    0.7376    0.0000 </r>
       <r>    1.5327    0.0000 </r>
       <r>    1.8588    0.0000 </r>
       <r>    1.9953    0.0000 </r>
       <r>    2.0171    0.0000 </r>
       <r>    2.7775    0.0000 </r>
      </set>
      <set comment="kpoint 14">
       <r>  -21.8818    1.0000 </r>
       <r>  -21.1382    1.0000 </r>
       <r>  -20.7687    1.0000 </r>
       <r>  -19.6744    1.0000 </r>
       <r>  -18.9577    1.0000 </r>
       <r>  -17.9168    1.0000 </r>
       <r>  -17.5943    1.0000 </r>
       <r>  -17.5720    1.0000 </r>
       <r>  -16.6747    1.0000 </r>
       <r>  -15.2595    1.0000 </r>
       <r>  -15.2359    1.0000 </r>
       <r>  -14.6404    1.0000 </r>
       <r>  -13.7366    1.0000 </r>
       <r>  -12.8123    1.0000 </r>
       <r>  -11.8891    1.0000 </r>
       <r>  -11.6747    1.0000 </r>
       <r>  -11.3975    1.0000 </r>
       <r>  -10.0521    1.0000 </r>
       <r>   -9.9209    1.0000 </r>
       <r>   -9.9141    1.0000 </r>
       <r>   -9.7034    1.0000 </r>
       <r>   -9.6383    1.0000 </r>
       <r>   -9.2851    1.0000 </r>
       <r>   -9.2580    1.0000 </r>
       <r>   -9.0378    1.0000 </r>
       <r>   -8.6066    1.0000 </r>
       <r>   -8.2543    1.0000 </r>
       <r>   -7.5781    1.0000 </r>
       <r>   -7.3557    1.0000 </r>
       <r>   -7.1571    1.0000 </r>
       <r>   -6.5708    1.0000 </r>
       <r>   -6.5304    1.0000 </r>
       <r>   -5.5762    1.0000 </r>
       <r>   -5.3829    1.0000 </r>
       <r>   -5.0690    1.0000 </r>
       <r>   -4.4426    1.0000 </r>
       <r>   -1.2815    0.0000 </r>
       <r>   -0.6900    0.0000 </r>
       <r>   -0.4353    0.0000 </r>
       <r>   -0.3080    0.0000 </r>
       <r>    1.0283    0.0000 </r>
       <r>    1.2336    0.0000 </r>
       <r>    1.8268    0.0000 </r>
       <r>    2.0446    0.0000 </r>
       <r>    2.1567    0.0000 </r>
       <r>    2.4078    0.0000 </r>
      </set>
      <set comment="kpoint 15">
       <r>  -21.8818    1.0000 </r>
       <r>  -21.1382    1.0000 </r>
       <r>  -20.7686    1.0000 </r>
       <r>  -19.6743    1.0000 </r>
       <r>  -18.9586    1.0000 </r>
       <r>  -17.9173    1.0000 </r>
       <r>  -17.5961    1.0000 </r>
       <r>  -17.5694    1.0000 </r>
       <r>  -16.6702    1.0000 </r>
       <r>  -15.2605    1.0000 </r>
       <r>  -15.2528    1.0000 </r>
       <r>  -14.6276    1.0000 </r>
       <r>  -13.7217    1.0000 </r>
       <r>  -12.8259    1.0000 </r>
       <r>  -11.9052    1.0000 </r>
       <r>  -11.6805    1.0000 </r>
       <r>  -11.3853    1.0000 </r>
       <r>  -10.0347    1.0000 </r>
       <r>   -9.9143    1.0000 </r>
       <r>   -9.9033    1.0000 </r>
       <r>   -9.7213    1.0000 </r>
       <r>   -9.6325    1.0000 </r>
       <r>   -9.2825    1.0000 </r>
       <r>   -9.2678    1.0000 </r>
       <r>   -9.0368    1.0000 </r>
       <r>   -8.6079    1.0000 </r>
       <r>   -8.2735    1.0000 </r>
       <r>   -7.5658    1.0000 </r>
       <r>   -7.3551    1.0000 </r>
       <r>   -7.1457    1.0000 </r>
       <r>   -6.5654    1.0000 </r>
       <r>   -6.5422    1.0000 </r>
       <r>   -5.5881    1.0000 </r>
       <r>   -5.3798    1.0000 </r>
       <r>   -5.0763    1.0000 </r>
       <r>   -4.4290    1.0000 </r>
       <r>   -1.3024    0.0000 </r>
       <r>   -0.6959    0.0000 </r>
       <r>   -0.4213    0.0000 </r>
       <r>   -0.2841    0.0000 </r>
       <r>    1.0282    0.0000 </r>
       <r>    1.2180    0.0000 </r>
       <r>    1.8268    0.0000 </r>
       <r>    2.0447    0.0000 </r>
       <r>    2.1567    0.0000 </r>
       <r>    2.4064    0.0000 </r>
      </set>
      <set comment="kpoint 16">
       <r>  -21.8817    1.0000 </r>
       <r>  -21.1378    1.0000 </r>
       <r>  -20.7690    1.0000 </r>
       <r>  -19.6751    1.0000 </r>
       <r>  -18.9581    1.0000 </r>
       <r>  -17.9169    1.0000 </r>
       <r>  -17.5975    1.0000 </r>
       <r>  -17.5700    1.0000 </r>
       <r>  -16.6684    1.0000 </r>
       <r>  -15.2622    1.0000 </r>
       <r>  -15.2411    1.0000 </r>
       <r>  -14.6364    1.0000 </r>
       <r>  -13.7236    1.0000 </r>
       <r>  -12.8254    1.0000 </r>
       <r>  -11.9029    1.0000 </r>
       <r>  -11.6928    1.0000 </r>
       <r>  -11.3831    1.0000 </r>
       <r>  -10.0351    1.0000 </r>
       <r>   -9.9261    1.0000 </r>
       <r>   -9.9145    1.0000 </r>
       <r>   -9.7093    1.0000 </r>
       <r>   -9.6175    1.0000 </r>
       <r>   -9.2929    1.0000 </r>
       <r>   -9.2517    1.0000 </r>
       <r>   -9.0383    1.0000 </r>
       <r>   -8.6060    1.0000 </r>
       <r>   -8.2485    1.0000 </r>
       <r>   -7.5924    1.0000 </r>
       <r>   -7.3521    1.0000 </r>
       <r>   -7.1240    1.0000 </r>
       <r>   -6.5665    1.0000 </r>
       <r>   -6.5653    1.0000 </r>
       <r>   -5.5810    1.0000 </r>
       <r>   -5.3942    1.0000 </r>
       <r>   -5.0764    1.0000 </r>
       <r>   -4.4266    1.0000 </r>
       <r>   -1.3059    0.0000 </r>
       <r>   -0.6707    0.0000 </r>
       <r>   -0.4195    0.0000 </r>
       <r>   -0.2992    0.0000 </r>
       <r>    1.0282    0.0000 </r>
       <r>    1.2218    0.0000 </r>
       <r>    1.8268    0.0000 </r>
       <r>    2.0446    0.0000 </r>
       <r>    2.1567    0.0000 </r>
       <r>    2.3950    0.0000 </r>
      </set>
      <set comment="kpoint 17">
       <r>  -21.8818    1.0000 </r>
       <r>  -21.1377    1.0000 </r>
       <r>  -20.7692    1.0000 </r>
       <r>  -19.6749    1.0000 </r>
       <r>  -18.9581    1.0000 </r>
       <r>  -17.9166    1.0000 </r>
       <r>  -17.5983    1.0000 </r>
       <r>  -17.5689    1.0000 </r>
       <r>  -16.6702    1.0000 </r>
       <r>  -15.2556    1.0000 </r>
       <r>  -15.2426    1.0000 </r>
       <r>  -14.6402    1.0000 </r>
       <r>  -13.7284    1.0000 </r>
       <r>  -12.8208    1.0000 </r>
       <r>  -11.8977    1.0000 </r>
       <r>  -11.6903    1.0000 </r>
       <r>  -11.3868    1.0000 </r>
       <r>  -10.0407    1.0000 </r>
       <r>   -9.9288    1.0000 </r>
       <r>   -9.9145    1.0000 </r>
       <r>   -9.7050    1.0000 </r>
       <r>   -9.6212    1.0000 </r>
       <r>   -9.2926    1.0000 </r>
       <r>   -9.2503    1.0000 </r>
       <r>   -9.0384    1.0000 </r>
       <r>   -8.6057    1.0000 </r>
       <r>   -8.2443    1.0000 </r>
       <r>   -7.5946    1.0000 </r>
       <r>   -7.3525    1.0000 </r>
       <r>   -7.1299    1.0000 </r>
       <r>   -6.5684    1.0000 </r>
       <r>   -6.5591    1.0000 </r>
       <r>   -5.5776    1.0000 </r>
       <r>   -5.3941    1.0000 </r>
       <r>   -5.0736    1.0000 </r>
       <r>   -4.4314    1.0000 </r>
       <r>   -1.2986    0.0000 </r>
       <r>   -0.6710    0.0000 </r>
       <r>   -0.4254    0.0000 </r>
       <r>   -0.3049    0.0000 </r>
       <r>    1.0282    0.0000 </r>
       <r>    1.2268    0.0000 </r>
       <r>    1.8268    0.0000 </r>
       <r>    2.0446    0.0000 </r>
       <r>    2.1567    0.0000 </r>
       <r>    2.3964    0.0000 </r>
      </set>
      <set comment="kpoint 18">
       <r>  -21.8818    1.0000 </r>
       <r>  -21.1382    1.0000 </r>
       <r>  -20.7686    1.0000 </r>
       <r>  -19.6743    1.0000 </r>
       <r>  -18.9578    1.0000 </r>
       <r>  -17.9171    1.0000 </r>
       <r>  -17.5943    1.0000 </r>
       <r>  -17.5715    1.0000 </r>
       <r>  -16.6745    1.0000 </r>
       <r>  -15.2638    1.0000 </r>
       <r>  -15.2358    1.0000 </r>
       <r>  -14.6370    1.0000 </r>
       <r>  -13.7349    1.0000 </r>
       <r>  -12.8139    1.0000 </r>
       <r>  -11.8906    1.0000 </r>
       <r>  -11.6720    1.0000 </r>
       <r>  -11.3974    1.0000 </r>
       <r>  -10.0499    1.0000 </r>
       <r>   -9.9147    1.0000 </r>
       <r>   -9.9141    1.0000 </r>
       <r>   -9.7078    1.0000 </r>
       <r>   -9.6412    1.0000 </r>
       <r>   -9.2816    1.0000 </r>
       <r>   -9.2637    1.0000 </r>
       <r>   -9.0373    1.0000 </r>
       <r>   -8.6071    1.0000 </r>
       <r>   -8.2619    1.0000 </r>
       <r>   -7.5706    1.0000 </r>
       <r>   -7.3564    1.0000 </r>
       <r>   -7.1612    1.0000 </r>
       <r>   -6.5700    1.0000 </r>
       <r>   -6.5261    1.0000 </r>
       <r>   -5.5792    1.0000 </r>
       <r>   -5.3790    1.0000 </r>
       <r>   -5.0696    1.0000 </r>
       <r>   -4.4419    1.0000 </r>
       <r>   -1.2826    0.0000 </r>
       <r>   -0.6971    0.0000 </r>
       <r>   -0.4331    0.0000 </r>
       <r>   -0.3032    0.0000 </r>
       <r>    1.0283    0.0000 </r>
       <r>    1.2312    0.0000 </r>
       <r>    1.8268    0.0000 </r>
       <r>    2.0447    0.0000 </r>
       <r>    2.1567    0.0000 </r>
       <r>    2.5527    0.0000 </r>
      </set>
      <set comment="kpoint 19">
       <r>  -21.8817    1.0000 </r>
       <r>  -21.1382    1.0000 </r>
       <r>  -20.7686    1.0000 </r>
       <r>  -19.6745    1.0000 </r>
       <r>  -18.9586    1.0000 </r>
       <r>  -17.9172    1.0000 </r>
       <r>  -17.5952    1.0000 </r>
       <r>  -17.5711    1.0000 </r>
       <r>  -16.6685    1.0000 </r>
       <r>  -15.2622    1.0000 </r>
       <r>  -15.2521    1.0000 </r>
       <r>  -14.6272    1.0000 </r>
       <r>  -13.7185    1.0000 </r>
       <r>  -12.8289    1.0000 </r>
       <r>  -11.9088    1.0000 </r>
       <r>  -11.6857    1.0000 </r>
       <r>  -11.3818    1.0000 </r>
       <r>  -10.0313    1.0000 </r>
       <r>   -9.9144    1.0000 </r>
       <r>   -9.9069    1.0000 </r>
       <r>   -9.7212    1.0000 </r>
       <r>   -9.6258    1.0000 </r>
       <r>   -9.2866    1.0000 </r>
       <r>   -9.2633    1.0000 </r>
       <r>   -9.0372    1.0000 </r>
       <r>   -8.6075    1.0000 </r>
       <r>   -8.2701    1.0000 </r>
       <r>   -7.5712    1.0000 </r>
       <r>   -7.3539    1.0000 </r>
       <r>   -7.1358    1.0000 </r>
       <r>   -6.5644    1.0000 </r>
       <r>   -6.5527    1.0000 </r>
       <r>   -5.5887    1.0000 </r>
       <r>   -5.3837    1.0000 </r>
       <r>   -5.0784    1.0000 </r>
       <r>   -4.4249    1.0000 </r>
       <r>   -1.3087    0.0000 </r>
       <r>   -0.6885    0.0000 </r>
       <r>   -0.4177    0.0000 </r>
       <r>   -0.2831    0.0000 </r>
       <r>    1.0282    0.0000 </r>
       <r>    1.2154    0.0000 </r>
       <r>    1.8268    0.0000 </r>
       <r>    2.0447    0.0000 </r>
       <r>    2.1567    0.0000 </r>
       <r>    2.4022    0.0000 </r>
      </set>
      <set comment="kpoint 20">
       <r>  -21.5645    1.0000 </r>
       <r>  -21.5600    1.0000 </r>
       <r>  -20.8214    1.0000 </r>
       <r>  -19.7262    1.0000 </r>
       <r>  -18.3096    1.0000 </r>
       <r>  -18.3030    1.0000 </r>
       <r>  -17.3114    1.0000 </r>
       <r>  -17.3043    1.0000 </r>
       <r>  -16.9854    1.0000 </r>
       <r>  -15.9424    1.0000 </r>
       <r>  -15.0165    1.0000 </r>
       <r>  -15.0006    1.0000 </r>
       <r>  -13.2908    1.0000 </r>
       <r>  -13.2726    1.0000 </r>
       <r>  -11.3555    1.0000 </r>
       <r>  -10.9987    1.0000 </r>
       <r>  -10.9778    1.0000 </r>
       <r>  -10.5097    1.0000 </r>
       <r>  -10.4925    1.0000 </r>
       <r>   -9.9096    1.0000 </r>
       <r>   -9.6305    1.0000 </r>
       <r>   -9.5378    1.0000 </r>
       <r>   -9.5340    1.0000 </r>
       <r>   -9.3331    1.0000 </r>
       <r>   -8.6675    1.0000 </r>
       <r>   -8.4231    1.0000 </r>
       <r>   -8.1361    1.0000 </r>
       <r>   -8.1212    1.0000 </r>
       <r>   -7.4097    1.0000 </r>
       <r>   -7.0574    1.0000 </r>
       <r>   -7.0388    1.0000 </r>
       <r>   -5.8606    1.0000 </r>
       <r>   -5.8510    1.0000 </r>
       <r>   -5.0615    1.0000 </r>
       <r>   -5.0208    1.0000 </r>
       <r>   -5.0040    1.0000 </r>
       <r>   -1.0940    0.0000 </r>
       <r>   -0.8350    0.0000 </r>
       <r>   -0.8085    0.0000 </r>
       <r>    0.4009    0.0000 </r>
       <r>    0.4204    0.0000 </r>
       <r>    1.4638    0.0000 </r>
       <r>    1.4644    0.0000 </r>
       <r>    2.2671    0.0000 </r>
       <r>    2.2673    0.0000 </r>
       <r>    2.4882    0.0000 </r>
      </set>
      <set comment="kpoint 21">
       <r>  -21.5687    1.0000 </r>
       <r>  -21.5559    1.0000 </r>
       <r>  -20.8213    1.0000 </r>
       <r>  -19.7261    1.0000 </r>
       <r>  -18.3157    1.0000 </r>
       <r>  -18.2970    1.0000 </r>
       <r>  -17.3180    1.0000 </r>
       <r>  -17.2985    1.0000 </r>
       <r>  -16.9827    1.0000 </r>
       <r>  -15.9482    1.0000 </r>
       <r>  -15.0156    1.0000 </r>
       <r>  -14.9981    1.0000 </r>
       <r>  -13.2911    1.0000 </r>
       <r>  -13.2720    1.0000 </r>
       <r>  -11.3494    1.0000 </r>
       <r>  -10.9980    1.0000 </r>
       <r>  -10.9790    1.0000 </r>
       <r>  -10.5112    1.0000 </r>
       <r>  -10.4944    1.0000 </r>
       <r>   -9.9158    1.0000 </r>
       <r>   -9.6239    1.0000 </r>
       <r>   -9.5409    1.0000 </r>
       <r>   -9.5304    1.0000 </r>
       <r>   -9.3284    1.0000 </r>
       <r>   -8.6680    1.0000 </r>
       <r>   -8.4312    1.0000 </r>
       <r>   -8.1475    1.0000 </r>
       <r>   -8.1222    1.0000 </r>
       <r>   -7.4106    1.0000 </r>
       <r>   -7.0584    1.0000 </r>
       <r>   -7.0238    1.0000 </r>
       <r>   -5.8639    1.0000 </r>
       <r>   -5.8473    1.0000 </r>
       <r>   -5.0564    1.0000 </r>
       <r>   -5.0235    1.0000 </r>
       <r>   -5.0042    1.0000 </r>
       <r>   -1.1021    0.0000 </r>
       <r>   -0.8303    0.0000 </r>
       <r>   -0.8084    0.0000 </r>
       <r>    0.4003    0.0000 </r>
       <r>    0.4199    0.0000 </r>
       <r>    1.4634    0.0000 </r>
       <r>    1.4649    0.0000 </r>
       <r>    2.2669    0.0000 </r>
       <r>    2.2675    0.0000 </r>
       <r>    2.6035    0.0000 </r>
      </set>
      <set comment="kpoint 22">
       <r>  -21.5708    1.0000 </r>
       <r>  -21.5533    1.0000 </r>
       <r>  -20.8218    1.0000 </r>
       <r>  -19.7268    1.0000 </r>
       <r>  -18.3187    1.0000 </r>
       <r>  -18.2933    1.0000 </r>
       <r>  -17.3203    1.0000 </r>
       <r>  -17.2936    1.0000 </r>
       <r>  -16.9923    1.0000 </r>
       <r>  -15.9267    1.0000 </r>
       <r>  -15.0230    1.0000 </r>
       <r>  -15.0040    1.0000 </r>
       <r>  -13.2927    1.0000 </r>
       <r>  -13.2728    1.0000 </r>
       <r>  -11.3707    1.0000 </r>
       <r>  -10.9953    1.0000 </r>
       <r>  -10.9792    1.0000 </r>
       <r>  -10.5038    1.0000 </r>
       <r>  -10.4882    1.0000 </r>
       <r>   -9.8913    1.0000 </r>
       <r>   -9.6503    1.0000 </r>
       <r>   -9.5435    1.0000 </r>
       <r>   -9.5292    1.0000 </r>
       <r>   -9.3456    1.0000 </r>
       <r>   -8.6663    1.0000 </r>
       <r>   -8.4033    1.0000 </r>
       <r>   -8.1277    1.0000 </r>
       <r>   -8.0911    1.0000 </r>
       <r>   -7.4072    1.0000 </r>
       <r>   -7.0905    1.0000 </r>
       <r>   -7.0475    1.0000 </r>
       <r>   -5.8670    1.0000 </r>
       <r>   -5.8455    1.0000 </r>
       <r>   -5.0744    1.0000 </r>
       <r>   -5.0183    1.0000 </r>
       <r>   -4.9994    1.0000 </r>
       <r>   -1.0725    0.0000 </r>
       <r>   -0.8364    0.0000 </r>
       <r>   -0.8193    0.0000 </r>
       <r>    0.4020    0.0000 </r>
       <r>    0.4217    0.0000 </r>
       <r>    1.4631    0.0000 </r>
       <r>    1.4651    0.0000 </r>
       <r>    2.2667    0.0000 </r>
       <r>    2.2675    0.0000 </r>
       <r>    2.4879    0.0000 </r>
      </set>
      <set comment="kpoint 23">
       <r>  -21.6156    1.0000 </r>
       <r>  -21.2526    1.0000 </r>
       <r>  -21.2349    1.0000 </r>
       <r>  -19.0723    1.0000 </r>
       <r>  -19.0477    1.0000 </r>
       <r>  -18.3561    1.0000 </r>
       <r>  -17.0968    1.0000 </r>
       <r>  -17.0782    1.0000 </r>
       <r>  -16.7172    1.0000 </r>
       <r>  -15.6651    1.0000 </r>
       <r>  -15.6285    1.0000 </r>
       <r>  -15.6087    1.0000 </r>
       <r>  -12.9285    1.0000 </r>
       <r>  -12.2650    1.0000 </r>
       <r>  -12.2461    1.0000 </r>
       <r>  -11.3424    1.0000 </r>
       <r>  -10.5778    1.0000 </r>
       <r>  -10.5620    1.0000 </r>
       <r>  -10.5440    1.0000 </r>
       <r>   -9.8232    1.0000 </r>
       <r>   -9.8059    1.0000 </r>
       <r>   -9.5984    1.0000 </r>
       <r>   -9.1684    1.0000 </r>
       <r>   -9.1541    1.0000 </r>
       <r>   -8.8372    1.0000 </r>
       <r>   -8.8007    1.0000 </r>
       <r>   -7.9011    1.0000 </r>
       <r>   -7.7068    1.0000 </r>
       <r>   -7.6705    1.0000 </r>
       <r>   -7.0622    1.0000 </r>
       <r>   -6.6776    1.0000 </r>
       <r>   -6.6558    1.0000 </r>
       <r>   -5.8900    1.0000 </r>
       <r>   -5.0074    1.0000 </r>
       <r>   -4.9923    1.0000 </r>
       <r>   -4.6834    1.0000 </r>
       <r>   -1.2114    0.0000 </r>
       <r>   -1.0421    0.0000 </r>
       <r>   -1.0244    0.0000 </r>
       <r>    0.5196    0.0000 </r>
       <r>    1.3917    0.0000 </r>
       <r>    1.4755    0.0000 </r>
       <r>    1.5008    0.0000 </r>
       <r>    1.8990    0.0000 </r>
       <r>    1.9011    0.0000 </r>
       <r>    2.1940    0.0000 </r>
      </set>
      <set comment="kpoint 24">
       <r>  -21.6156    1.0000 </r>
       <r>  -21.2461    1.0000 </r>
       <r>  -21.2413    1.0000 </r>
       <r>  -19.0636    1.0000 </r>
       <r>  -19.0573    1.0000 </r>
       <r>  -18.3554    1.0000 </r>
       <r>  -17.0931    1.0000 </r>
       <r>  -17.0860    1.0000 </r>
       <r>  -16.7097    1.0000 </r>
       <r>  -15.6807    1.0000 </r>
       <r>  -15.6214    1.0000 </r>
       <r>  -15.6035    1.0000 </r>
       <r>  -12.9156    1.0000 </r>
       <r>  -12.2730    1.0000 </r>
       <r>  -12.2580    1.0000 </r>
       <r>  -11.3575    1.0000 </r>
       <r>  -10.5576    1.0000 </r>
       <r>  -10.5535    1.0000 </r>
       <r>  -10.5374    1.0000 </r>
       <r>   -9.8296    1.0000 </r>
       <r>   -9.8124    1.0000 </r>
       <r>   -9.5990    1.0000 </r>
       <r>   -9.1630    1.0000 </r>
       <r>   -9.1590    1.0000 </r>
       <r>   -8.8386    1.0000 </r>
       <r>   -8.8068    1.0000 </r>
       <r>   -7.8792    1.0000 </r>
       <r>   -7.7021    1.0000 </r>
       <r>   -7.6668    1.0000 </r>
       <r>   -7.0861    1.0000 </r>
       <r>   -6.6679    1.0000 </r>
       <r>   -6.6610    1.0000 </r>
       <r>   -5.8944    1.0000 </r>
       <r>   -5.0151    1.0000 </r>
       <r>   -4.9981    1.0000 </r>
       <r>   -4.6699    1.0000 </r>
       <r>   -1.2325    0.0000 </r>
       <r>   -1.0358    0.0000 </r>
       <r>   -1.0082    0.0000 </r>
       <r>    0.5307    0.0000 </r>
       <r>    1.3916    0.0000 </r>
       <r>    1.4740    0.0000 </r>
       <r>    1.4883    0.0000 </r>
       <r>    1.8998    0.0000 </r>
       <r>    1.9004    0.0000 </r>
       <r>    2.1939    0.0000 </r>
      </set>
      <set comment="kpoint 25">
       <r>  -21.6155    1.0000 </r>
       <r>  -21.2503    1.0000 </r>
       <r>  -21.2373    1.0000 </r>
       <r>  -19.0695    1.0000 </r>
       <r>  -19.0514    1.0000 </r>
       <r>  -18.3554    1.0000 </r>
       <r>  -17.0973    1.0000 </r>
       <r>  -17.0833    1.0000 </r>
       <r>  -16.7069    1.0000 </r>
       <r>  -15.6867    1.0000 </r>
       <r>  -15.6193    1.0000 </r>
       <r>  -15.6007    1.0000 </r>
       <r>  -12.9106    1.0000 </r>
       <r>  -12.2778    1.0000 </r>
       <r>  -12.2606    1.0000 </r>
       <r>  -11.3628    1.0000 </r>
       <r>  -10.5566    1.0000 </r>
       <r>  -10.5499    1.0000 </r>
       <r>  -10.5300    1.0000 </r>
       <r>   -9.8320    1.0000 </r>
       <r>   -9.8143    1.0000 </r>
       <r>   -9.5991    1.0000 </r>
       <r>   -9.1662    1.0000 </r>
       <r>   -9.1557    1.0000 </r>
       <r>   -8.8411    1.0000 </r>
       <r>   -8.8073    1.0000 </r>
       <r>   -7.8705    1.0000 </r>
       <r>   -7.7017    1.0000 </r>
       <r>   -7.6642    1.0000 </r>
       <r>   -7.0952    1.0000 </r>
       <r>   -6.6717    1.0000 </r>
       <r>   -6.6554    1.0000 </r>
       <r>   -5.8961    1.0000 </r>
       <r>   -5.0171    1.0000 </r>
       <r>   -5.0012    1.0000 </r>
       <r>   -4.6651    1.0000 </r>
       <r>   -1.2400    0.0000 </r>
       <r>   -1.0295    0.0000 </r>
       <r>   -1.0064    0.0000 </r>
       <r>    0.5349    0.0000 </r>
       <r>    1.3916    0.0000 </r>
       <r>    1.4683    0.0000 </r>
       <r>    1.4888    0.0000 </r>
       <r>    1.8994    0.0000 </r>
       <r>    1.9009    0.0000 </r>
       <r>    2.1939    0.0000 </r>
      </set>
     </set>
    </set>
   </array>
  </eigenvalues>
  <separator name="orbital magnetization" >
   <v name="MAGDIPOLOUT">      0.00000000      0.00000000      0.00000000</v>
  </separator>
  <dos>
   <i name="efermi">     -2.75535631 </i>
   <total>
    <array>
     <dimension dim="1">gridpoints</dimension>
     <dimension dim="2">spin</dimension>
     <field>energy</field>
     <field>total</field>
     <field>integrated</field>
     <set>
      <set comment="spin 1">
       <r>   -23.5114     0.0000     0.0000 </r>
       <r>   -23.4193     0.0000     0.0000 </r>
       <r>   -23.3273     0.0000     0.0000 </r>
       <r>   -23.2352     0.0000     0.0000 </r>
       <r>   -23.1432     0.0000     0.0000 </r>
       <r>   -23.0511     0.0000     0.0000 </r>
       <r>   -22.9590     0.0000     0.0000 </r>
       <r>   -22.8670     0.0000     0.0000 </r>
       <r>   -22.7749     0.0000     0.0000 </r>
       <r>   -22.6829     0.0000     0.0000 </r>
       <r>   -22.5908     0.0000     0.0000 </r>
       <r>   -22.4987     0.0000     0.0000 </r>
       <r>   -22.4067     0.0000     0.0000 </r>
       <r>   -22.3146     0.0236     0.0022 </r>
       <r>   -22.2226     1.1018     0.1036 </r>
       <r>   -22.1305     2.3660     0.3214 </r>
       <r>   -22.0384     3.5656     0.6497 </r>
       <r>   -21.9464     1.5378     0.7912 </r>
       <r>   -21.8543     4.0196     1.1613 </r>
       <r>   -21.7623     2.8376     1.4225 </r>
       <r>   -21.6702     1.1180     1.5254 </r>
       <r>   -21.5781     3.8574     1.8806 </r>
       <r>   -21.4861     3.8910     2.2388 </r>
       <r>   -21.3940     1.6567     2.3913 </r>
       <r>   -21.3020     1.3446     2.5151 </r>
       <r>   -21.2099     4.2367     2.9051 </r>
       <r>   -21.1178     4.6191     3.3303 </r>
       <r>   -21.0258     1.5133     3.4696 </r>
       <r>   -20.9337     1.1229     3.5730 </r>
       <r>   -20.8417     2.3744     3.7916 </r>
       <r>   -20.7496     5.5237     4.3001 </r>
       <r>   -20.6575     2.1367     4.4968 </r>
       <r>   -20.5655     4.2579     4.8888 </r>
       <r>   -20.4734     0.5429     4.9388 </r>
       <r>   -20.3814     0.5401     4.9885 </r>
       <r>   -20.2893     5.1511     5.4627 </r>
       <r>   -20.1972     4.6755     5.8932 </r>
       <r>   -20.1052     2.8950     6.1597 </r>
       <r>   -20.0131     1.1771     6.2680 </r>
       <r>   -19.9211     3.9685     6.6334 </r>
       <r>   -19.8290     0.2188     6.6535 </r>
       <r>   -19.7369     1.3581     6.7785 </r>
       <r>   -19.6449     7.5652     7.4750 </r>
       <r>   -19.5528     2.6671     7.7205 </r>
       <r>   -19.4608     4.0804     8.0962 </r>
       <r>   -19.3687     0.2942     8.1233 </r>
       <r>   -19.2766     1.8434     8.2930 </r>
       <r>   -19.1846     3.3856     8.6047 </r>
       <r>   -19.0925     1.0859     8.7046 </r>
       <r>   -19.0005     4.6734     9.1349 </r>
       <r>   -18.9084     5.7945     9.6683 </r>
       <r>   -18.8163     2.0621     9.8581 </r>
       <r>   -18.7243     4.0487    10.2309 </r>
       <r>   -18.6322     1.0375    10.3264 </r>
       <r>   -18.5402     0.0495    10.3309 </r>
       <r>   -18.4481     3.0247    10.6094 </r>
       <r>   -18.3560     4.0103    10.9786 </r>
       <r>   -18.2640     5.5546    11.4899 </r>
       <r>   -18.1719     2.5565    11.7253 </r>
       <r>   -18.0799     4.1884    12.1109 </r>
       <r>   -17.9878     1.9750    12.2927 </r>
       <r>   -17.8957     3.7875    12.6414 </r>
       <r>   -17.8037     1.4537    12.7752 </r>
       <r>   -17.7116     0.0066    12.7758 </r>
       <r>   -17.6196     1.7794    12.9396 </r>
       <r>   -17.5275     8.6656    13.7374 </r>
       <r>   -17.4354     4.9689    14.1948 </r>
       <r>   -17.3434     1.4259    14.3261 </r>
       <r>   -17.2513     4.7976    14.7677 </r>
       <r>   -17.1593     2.3715    14.9860 </r>
       <r>   -17.0672     3.8378    15.3393 </r>
       <r>   -16.9751     3.0801    15.6229 </r>
       <r>   -16.8831     0.9926    15.7143 </r>
       <r>   -16.7910     1.5597    15.8579 </r>
       <r>   -16.6990     8.6857    16.6575 </r>
       <r>   -16.6069     5.5242    17.1660 </r>
       <r>   -16.5148     0.1916    17.1837 </r>
       <r>   -16.4228     0.0000    17.1837 </r>
       <r>   -16.3307     0.0000    17.1837 </r>
       <r>   -16.2387     0.0413    17.1875 </r>
       <r>   -16.1466     1.7259    17.3464 </r>
       <r>   -16.0545     1.1685    17.4539 </r>
       <r>   -15.9625     4.7702    17.8931 </r>
       <r>   -15.8704     2.8540    18.1558 </r>
       <r>   -15.7784     0.5759    18.2088 </r>
       <r>   -15.6863     3.2391    18.5070 </r>
       <r>   -15.5942     5.2889    18.9939 </r>
       <r>   -15.5022     1.6116    19.1423 </r>
       <r>   -15.4101     0.0668    19.1484 </r>
       <r>   -15.3180     1.6521    19.3005 </r>
       <r>   -15.2260     9.8900    20.2110 </r>
       <r>   -15.1339     3.4613    20.5297 </r>
       <r>   -15.0419     1.0164    20.6232 </r>
       <r>   -14.9498     4.8814    21.0726 </r>
       <r>   -14.8577     4.4220    21.4797 </r>
       <r>   -14.7657     1.3265    21.6018 </r>
       <r>   -14.6736     2.8266    21.8620 </r>
       <r>   -14.5816     8.4731    22.6421 </r>
       <r>   -14.4895     1.0056    22.7346 </r>
       <r>   -14.3974     0.1005    22.7439 </r>
       <r>   -14.3054     3.7550    23.0896 </r>
       <r>   -14.2133     4.1800    23.4744 </r>
       <r>   -14.1213     4.4000    23.8794 </r>
       <r>   -14.0292     0.9439    23.9663 </r>
       <r>   -13.9371     3.3651    24.2761 </r>
       <r>   -13.8451     1.8712    24.4484 </r>
       <r>   -13.7530     1.2686    24.5652 </r>
       <r>   -13.6610     3.9884    24.9324 </r>
       <r>   -13.5689     2.3184    25.1458 </r>
       <r>   -13.4768     4.3128    25.5428 </r>
       <r>   -13.3848     1.4315    25.6746 </r>
       <r>   -13.2927     2.4506    25.9002 </r>
       <r>   -13.2007     3.6691    26.2380 </r>
       <r>   -13.1086     0.0756    26.2449 </r>
       <r>   -13.0165     0.8501    26.3232 </r>
       <r>   -12.9245     9.3222    27.1814 </r>
       <r>   -12.8324     5.1097    27.6518 </r>
       <r>   -12.7404     3.2742    27.9532 </r>
       <r>   -12.6483     0.3692    27.9872 </r>
       <r>   -12.5562     2.1246    28.1828 </r>
       <r>   -12.4642     0.2644    28.2072 </r>
       <r>   -12.3721     1.5944    28.3539 </r>
       <r>   -12.2801     7.9087    29.0820 </r>
       <r>   -12.1880     8.6999    29.8829 </r>
       <r>   -12.0959     3.0048    30.1595 </r>
       <r>   -12.0039     0.0502    30.1642 </r>
       <r>   -11.9118     1.9163    30.3406 </r>
       <r>   -11.8198     3.3741    30.6512 </r>
       <r>   -11.7277     3.6803    30.9900 </r>
       <r>   -11.6356     6.4487    31.5837 </r>
       <r>   -11.5436     0.5318    31.6326 </r>
       <r>   -11.4515     0.2382    31.6546 </r>
       <r>   -11.3595     6.4690    32.2501 </r>
       <r>   -11.2674     6.0631    32.8083 </r>
       <r>   -11.1753     3.3697    33.1185 </r>
       <r>   -11.0833     5.5372    33.6282 </r>
       <r>   -10.9912     4.7280    34.0635 </r>
       <r>   -10.8992     2.8173    34.3228 </r>
       <r>   -10.8071     0.0400    34.3265 </r>
       <r>   -10.7150     0.0045    34.3269 </r>
       <r>   -10.6230     1.5649    34.4710 </r>
       <r>   -10.5309    10.9454    35.4786 </r>
       <r>   -10.4389    10.6128    36.4556 </r>
       <r>   -10.3468     2.8940    36.7221 </r>
       <r>   -10.2547     5.9150    37.2666 </r>
       <r>   -10.1627     2.0671    37.4569 </r>
       <r>   -10.0706     4.3151    37.8542 </r>
       <r>    -9.9786     4.9481    38.3097 </r>
       <r>    -9.8865    10.8202    39.3058 </r>
       <r>    -9.7944     9.9820    40.2247 </r>
       <r>    -9.7024     6.2516    40.8002 </r>
       <r>    -9.6103     8.7372    41.6046 </r>
       <r>    -9.5183     8.8996    42.4239 </r>
       <r>    -9.4262     5.4790    42.9283 </r>
       <r>    -9.3341     3.8233    43.2803 </r>
       <r>    -9.2421    10.3220    44.2305 </r>
       <r>    -9.1500    12.0241    45.3375 </r>
       <r>    -9.0580    14.8037    46.7003 </r>
       <r>    -8.9659     6.8668    47.3324 </r>
       <r>    -8.8738     3.1476    47.6222 </r>
       <r>    -8.7818    12.2821    48.7529 </r>
       <r>    -8.6897     6.9052    49.3886 </r>
       <r>    -8.5977     7.4521    50.0746 </r>
       <r>    -8.5056     7.0030    50.7193 </r>
       <r>    -8.4135     8.1178    51.4667 </r>
       <r>    -8.3215     3.3511    51.7752 </r>
       <r>    -8.2294     3.9970    52.1431 </r>
       <r>    -8.1374     5.6267    52.6611 </r>
       <r>    -8.0453    13.6425    53.9170 </r>
       <r>    -7.9532     5.3602    54.4105 </r>
       <r>    -7.8612     4.9477    54.8660 </r>
       <r>    -7.7691     1.2176    54.9781 </r>
       <r>    -7.6771     8.3375    55.7456 </r>
       <r>    -7.5850     7.0669    56.3962 </r>
       <r>    -7.4929     5.1212    56.8677 </r>
       <r>    -7.4009     2.9824    57.1422 </r>
       <r>    -7.3088     7.3169    57.8158 </r>
       <r>    -7.2168     2.3323    58.0305 </r>
       <r>    -7.1247     9.9796    58.9493 </r>
       <r>    -7.0326     7.6879    59.6570 </r>
       <r>    -6.9406     3.5919    59.9877 </r>
       <r>    -6.8485     3.5764    60.3169 </r>
       <r>    -6.7565     0.1542    60.3311 </r>
       <r>    -6.6644     4.3206    60.7289 </r>
       <r>    -6.5723    10.5324    61.6985 </r>
       <r>    -6.4803     8.8297    62.5113 </r>
       <r>    -6.3882     4.1181    62.8905 </r>
       <r>    -6.2962     4.0549    63.2638 </r>
       <r>    -6.2041     1.7454    63.4244 </r>
       <r>    -6.1120     4.9654    63.8816 </r>
       <r>    -6.0200     4.8752    64.3304 </r>
       <r>    -5.9279     2.8224    64.5902 </r>
       <r>    -5.8359     7.9169    65.3190 </r>
       <r>    -5.7438     7.1451    65.9768 </r>
       <r>    -5.6517     3.4653    66.2958 </r>
       <r>    -5.5597     3.7859    66.6443 </r>
       <r>    -5.4676     1.4810    66.7807 </r>
       <r>    -5.3756     3.1908    67.0744 </r>
       <r>    -5.2835     2.0868    67.2665 </r>
       <r>    -5.1914     1.5279    67.4072 </r>
       <r>    -5.0994     3.2614    67.7074 </r>
       <r>    -5.0073    15.5636    69.1402 </r>
       <r>    -4.9153     6.1768    69.7089 </r>
       <r>    -4.8232     0.0590    69.7143 </r>
       <r>    -4.7311     0.1426    69.7274 </r>
       <r>    -4.6391     2.0496    69.9161 </r>
       <r>    -4.5470     0.4714    69.9595 </r>
       <r>    -4.4550     1.4269    70.0909 </r>
       <r>    -4.3629     3.9565    70.4551 </r>
       <r>    -4.2708     5.0465    70.9197 </r>
       <r>    -4.1788     2.8300    71.1802 </r>
       <r>    -4.0867     0.0376    71.1837 </r>
       <r>    -3.9947     0.0112    71.1847 </r>
       <r>    -3.9026     1.2226    71.2973 </r>
       <r>    -3.8105     1.4079    71.4269 </r>
       <r>    -3.7185     0.0184    71.4286 </r>
       <r>    -3.6264     0.0151    71.4300 </r>
       <r>    -3.5344     2.1978    71.6323 </r>
       <r>    -3.4423     3.0563    71.9137 </r>
       <r>    -3.3502     0.0511    71.9184 </r>
       <r>    -3.2582     0.0000    71.9184 </r>
       <r>    -3.1661     0.0000    71.9184 </r>
       <r>    -3.0741     0.0000    71.9184 </r>
       <r>    -2.9820     0.0000    71.9184 </r>
       <r>    -2.8899     0.0003    71.9184 </r>
       <r>    -2.7979     0.2364    71.9402 </r>
       <r>    -2.7058     1.3604    72.0654 </r>
       <r>    -2.6138     0.1762    72.0816 </r>
       <r>    -2.5217     0.0002    72.0816 </r>
       <r>    -2.4296     0.0000    72.0816 </r>
       <r>    -2.3376     0.0000    72.0816 </r>
       <r>    -2.2455     0.0000    72.0816 </r>
       <r>    -2.1535     0.0001    72.0816 </r>
       <r>    -2.0614     0.3108    72.1103 </r>
       <r>    -1.9693     4.1260    72.4901 </r>
       <r>    -1.8773     0.8823    72.5713 </r>
       <r>    -1.7852     0.0564    72.5765 </r>
       <r>    -1.6932     1.7559    72.7382 </r>
       <r>    -1.6011     0.8451    72.8160 </r>
       <r>    -1.5090     0.0040    72.8163 </r>
       <r>    -1.4170     0.0033    72.8166 </r>
       <r>    -1.3249     1.9801    72.9989 </r>
       <r>    -1.2328    11.3414    74.0430 </r>
       <r>    -1.1408     2.8409    74.3045 </r>
       <r>    -1.0487     3.5186    74.6285 </r>
       <r>    -0.9567     5.7762    75.1602 </r>
       <r>    -0.8646     1.8378    75.3294 </r>
       <r>    -0.7725     4.2040    75.7164 </r>
       <r>    -0.6805     3.3949    76.0290 </r>
       <r>    -0.5884     4.7667    76.4678 </r>
       <r>    -0.4964     2.9872    76.7428 </r>
       <r>    -0.4043     3.7556    77.0885 </r>
       <r>    -0.3122     3.3381    77.3958 </r>
       <r>    -0.2202     5.1813    77.8728 </r>
       <r>    -0.1281     0.9342    77.9588 </r>
       <r>    -0.0361     0.0042    77.9592 </r>
       <r>     0.0560     0.5505    78.0099 </r>
       <r>     0.1481     4.2066    78.3972 </r>
       <r>     0.2401     1.5504    78.5399 </r>
       <r>     0.3322     4.1233    78.9195 </r>
       <r>     0.4242     3.6316    79.2538 </r>
       <r>     0.5163     3.1139    79.5405 </r>
       <r>     0.6084     3.6482    79.8763 </r>
       <r>     0.7004     1.3346    79.9992 </r>
       <r>     0.7925     5.8347    80.5363 </r>
       <r>     0.8845     5.9113    81.0805 </r>
       <r>     0.9766     1.4970    81.2183 </r>
       <r>     1.0687     4.2748    81.6119 </r>
       <r>     1.1607     1.8274    81.7801 </r>
       <r>     1.2528     5.6636    82.3015 </r>
       <r>     1.3448     2.1049    82.4953 </r>
       <r>     1.4369     6.9548    83.1355 </r>
       <r>     1.5290    13.9789    84.4224 </r>
       <r>     1.6210     4.5310    84.8396 </r>
       <r>     1.7131     4.6606    85.2686 </r>
       <r>     1.8051     3.3559    85.5776 </r>
       <r>     1.8972     8.8103    86.3886 </r>
       <r>     1.9893     8.8980    87.2078 </r>
       <r>     2.0813     9.2014    88.0549 </r>
       <r>     2.1734     6.9617    88.6958 </r>
       <r>     2.2654     6.8726    89.3285 </r>
       <r>     2.3575     7.3266    90.0030 </r>
       <r>     2.4496     5.0842    90.4710 </r>
       <r>     2.5416     4.3060    90.8674 </r>
       <r>     2.6337     2.9211    91.1363 </r>
       <r>     2.7257     2.1890    91.3379 </r>
       <r>     2.8178     4.5661    91.7582 </r>
       <r>     2.9099     2.4965    91.9880 </r>
       <r>     3.0019     0.1299    92.0000 </r>
       <r>     3.0940     0.0000    92.0000 </r>
       <r>     3.1860     0.0000    92.0000 </r>
       <r>     3.2781     0.0000    92.0000 </r>
       <r>     3.3702     0.0000    92.0000 </r>
       <r>     3.4622     0.0000    92.0000 </r>
       <r>     3.5543     0.0000    92.0000 </r>
       <r>     3.6463     0.0000    92.0000 </r>
       <r>     3.7384     0.0000    92.0000 </r>
       <r>     3.8305     0.0000    92.0000 </r>
       <r>     3.9225     0.0000    92.0000 </r>
       <r>     4.0146     0.0000    92.0000 </r>
       <r>     4.1066     0.0000    92.0000 </r>
      </set>
     </set>
    </array>
   </total>
  </dos>
 </calculation>
 <structure name="finalpos" >
  <crystal>
   <varray name="basis" >
    <v>       7.40170591       0.00000000       0.00000000 </v>
    <v>      -3.70085295       6.41006527       0.00000000 </v>
    <v>       0.00000000       0.00000000      20.00000000 </v>
   </varray>
   <i name="volume">    948.90835877 </i>
   <varray name="rec_basis" >
    <v>       0.13510399       0.07800233       0.00000000 </v>
    <v>       0.00000000       0.15600465       0.00000000 </v>
    <v>       0.00000000       0.00000000       0.05000000 </v>
   </varray>
  </crystal>
  <varray name="positions" >
   <v>       0.00057102       0.99843995       0.50000000 </v>
   <v>       0.33333333       0.00000000       0.50000000 </v>
   <v>       0.66666667       0.00000000       0.50000000 </v>
   <v>       0.00000000       0.33333333       0.50000000 </v>
   <v>       0.33333333       0.33333333       0.50000000 </v>
   <v>       0.66666667       0.33333333       0.50000000 </v>
   <v>       0.00000000       0.66666667       0.50000000 </v>
   <v>       0.33333333       0.66666667       0.50000000 </v>
   <v>       0.66666667       0.66666667       0.50000000 </v>
   <v>       0.22222222       0.11111111       0.50000000 </v>
   <v>       0.55555556       0.11111111       0.50000000 </v>
   <v>       0.88888889       0.11111111       0.50000000 </v>
   <v>       0.22222222       0.44444444       0.50000000 </v>
   <v>       0.55555556       0.44444444       0.50000000 </v>
   <v>       0.88888889       0.44444444       0.50000000 </v>
   <v>       0.22222222       0.77777778       0.50000000 </v>
   <v>       0.55555556       0.77777778       0.50000000 </v>
   <v>       0.88888889       0.77777778       0.50000000 </v>
  </varray>
 </structure>
</modeling>
