<?xml version="1.0" encoding="ISO-8859-1"?>
<modeling>
 <generator>
  <i name="program" type="string">vasp </i>
  <i name="version" type="string">6.4.1  </i>
  <i name="subversion" type="string">05Apr23 (build Feb 12 2025 00:37:39) complex                          parallel </i>
  <i name="platform" type="string">LinuxIFC </i>
  <i name="date" type="string">2025 02 14 </i>
  <i name="time" type="string">06:16:51 </i>
 </generator>
 <incar>
  <i type="string" name="SYSTEM">SCF</i>
  <i type="int" name="ISTART">     0</i>
  <i type="int" name="ICHARG">     2</i>
  <i type="int" name="NELM">    60</i>
  <i type="int" name="NELMIN">     6</i>
  <i name="EDIFF">      0.00000100</i>
  <i name="EDIFFG">     -0.00000100</i>
  <i name="ENCUT">    600.00000000</i>
  <i type="string" name="LREAL">Auto</i>
  <i type="int" name="ISMEAR">     0</i>
  <i name="SIGMA">      0.05000000</i>
  <i type="logical" name="LWAVE"> F  </i>
  <i type="logical" name="LCHARG"> F  </i>
 </incar>
 <primitive_cell>
  <structure name="primitive_cell" >
   <crystal>
    <varray name="basis" >
     <v>       7.40170591       0.00000000       0.00000000 </v>
     <v>      -3.70085295       6.41006527       0.00000000 </v>
     <v>       0.00000000       0.00000000      20.00000000 </v>
    </varray>
    <i name="volume">    948.90835877 </i>
    <varray name="rec_basis" >
     <v>       0.13510399       0.07800233       0.00000000 </v>
     <v>       0.00000000       0.15600465       0.00000000 </v>
     <v>       0.00000000       0.00000000       0.05000000 </v>
    </varray>
   </crystal>
   <varray name="positions" >
    <v>       0.99921998       0.99843995       0.50050000 </v>
    <v>       0.33333333       0.00000000       0.50000000 </v>
    <v>       0.66666667       0.00000000       0.50000000 </v>
    <v>       1.00000000       0.33333333       0.50000000 </v>
    <v>       0.33333333       0.33333333       0.50000000 </v>
    <v>       0.66666667       0.33333333       0.50000000 </v>
    <v>       1.00000000       0.66666667       0.50000000 </v>
    <v>       0.33333333       0.66666667       0.50000000 </v>
    <v>       0.66666667       0.66666667       0.50000000 </v>
    <v>       0.22222222       0.11111111       0.50000000 </v>
    <v>       0.55555556       0.11111111       0.50000000 </v>
    <v>       0.88888889       0.11111111       0.50000000 </v>
    <v>       0.22222222       0.44444444       0.50000000 </v>
    <v>       0.55555556       0.44444444       0.50000000 </v>
    <v>       0.88888889       0.44444444       0.50000000 </v>
    <v>       0.22222222       0.77777778       0.50000000 </v>
    <v>       0.55555556       0.77777778       0.50000000 </v>
    <v>       0.88888889       0.77777778       0.50000000 </v>
   </varray>
  </structure>
  <varray name="primitive_index" >
   <v type="int" >        1 </v>
   <v type="int" >        2 </v>
   <v type="int" >        3 </v>
   <v type="int" >        4 </v>
   <v type="int" >        5 </v>
   <v type="int" >        6 </v>
   <v type="int" >        7 </v>
   <v type="int" >        8 </v>
   <v type="int" >        9 </v>
   <v type="int" >       10 </v>
   <v type="int" >       11 </v>
   <v type="int" >       12 </v>
   <v type="int" >       13 </v>
   <v type="int" >       14 </v>
   <v type="int" >       15 </v>
   <v type="int" >       16 </v>
   <v type="int" >       17 </v>
   <v type="int" >       18 </v>
  </varray>
 </primitive_cell>
 <kpoints>
  <generation param="Gamma">
   <v type="int" name="divisions">       7        7        1 </v>
   <v name="usershift">      0.00000000       0.00000000       0.00000000 </v>
   <v name="genvec1">      0.14285714       0.00000000       0.00000000 </v>
   <v name="genvec2">      0.00000000       0.14285714       0.00000000 </v>
   <v name="genvec3">      0.00000000       0.00000000       1.00000000 </v>
   <v name="shift">      0.00000000       0.00000000       0.00000000 </v>
  </generation>
  <varray name="kpointlist" >
   <v>       0.00000000       0.00000000       0.00000000 </v>
   <v>       0.14285714       0.00000000       0.00000000 </v>
   <v>       0.00000000       0.14285714       0.00000000 </v>
   <v>       0.28571429       0.00000000       0.00000000 </v>
   <v>       0.00000000       0.28571429       0.00000000 </v>
   <v>       0.42857143       0.00000000       0.00000000 </v>
   <v>       0.00000000       0.42857143       0.00000000 </v>
   <v>       0.14285714       0.14285714       0.00000000 </v>
   <v>      -0.28571429       0.14285714       0.00000000 </v>
   <v>       0.28571429       0.14285714       0.00000000 </v>
   <v>      -0.14285714       0.42857143       0.00000000 </v>
   <v>      -0.42857143       0.28571429       0.00000000 </v>
   <v>       0.42857143       0.14285714       0.00000000 </v>
   <v>      -0.14285714      -0.42857143       0.00000000 </v>
   <v>       0.28571429       0.28571429       0.00000000 </v>
   <v>       0.42857143       0.28571429       0.00000000 </v>
  </varray>
  <varray name="weights" >
   <v>       0.02040816 </v>
   <v>       0.08163265 </v>
   <v>       0.04081633 </v>
   <v>       0.08163265 </v>
   <v>       0.04081633 </v>
   <v>       0.08163265 </v>
   <v>       0.04081633 </v>
   <v>       0.08163265 </v>
   <v>       0.04081633 </v>
   <v>       0.08163265 </v>
   <v>       0.08163265 </v>
   <v>       0.08163265 </v>
   <v>       0.08163265 </v>
   <v>       0.04081633 </v>
   <v>       0.08163265 </v>
   <v>       0.04081633 </v>
  </varray>
 </kpoints>
 <parameters>
  <separator name="general" >
   <i type="string" name="SYSTEM">SCF</i>
   <i type="logical" name="LCOMPAT"> F  </i>
  </separator>
  <separator name="electronic" >
   <i type="string" name="PREC">normal</i>
   <i name="ENMAX">    600.00000000</i>
   <i name="ENAUG">    644.87300000</i>
   <i name="EDIFF">      0.00000100</i>
   <i type="int" name="IALGO">    38</i>
   <i type="int" name="IWAVPR">    10</i>
   <i type="int" name="NBANDS">    46</i>
   <i type="int" name="NBANDSLOW">    -1</i>
   <i type="int" name="NBANDSHIGH">    -1</i>
   <i name="NELECT">     72.00000000</i>
   <i type="int" name="TURBO">     0</i>
   <i type="int" name="IRESTART">     0</i>
   <i type="int" name="NREBOOT">     0</i>
   <i type="int" name="NMIN">     0</i>
   <i name="EREF">      0.00000000</i>
   <separator name="electronic smearing" >
    <i type="int" name="ISMEAR">     0</i>
    <i name="SIGMA">      0.05000000</i>
    <i name="KSPACING">      0.50000000</i>
    <i type="logical" name="KGAMMA"> T  </i>
    <i type="logical" name="KBLOWUP"> T  </i>
   </separator>
   <separator name="electronic projectors" >
    <i type="logical" name="LREAL"> T  </i>
    <v name="ROPT">     -0.00050000</v>
    <i type="int" name="LMAXPAW">  -100</i>
    <i type="int" name="LMAXMIX">     2</i>
    <i type="logical" name="NLSPLINE"> F  </i>
   </separator>
   <separator name="electronic startup" >
    <i type="int" name="ISTART">     0</i>
    <i type="int" name="ICHARG">     2</i>
    <i type="int" name="INIWAV">     1</i>
   </separator>
   <separator name="electronic spin" >
    <i type="int" name="ISPIN">     1</i>
    <i type="logical" name="LNONCOLLINEAR"> F  </i>
    <v name="MAGMOM">      1.00000000      1.00000000      1.00000000      1.00000000      1.00000000      1.00000000      1.00000000      1.00000000      1.00000000      1.00000000      1.00000000      1.00000000      1.00000000      1.00000000      1.00000000      1.00000000      1.00000000      1.00000000</v>
    <i name="NUPDOWN">     -1.00000000</i>
    <i type="logical" name="LSORBIT"> F  </i>
    <v name="SAXIS">      0.00000000      0.00000000      1.00000000</v>
    <i type="logical" name="LSPIRAL"> F  </i>
    <v name="QSPIRAL">      0.00000000      0.00000000      0.00000000</v>
    <i type="logical" name="LZEROZ"> F  </i>
   </separator>
   <separator name="electronic exchange-correlation" >
    <i type="logical" name="LASPH"> F  </i>
    <i type="logical" name="LMETAGGA"> F  </i>
   </separator>
   <separator name="electronic convergence" >
    <i type="int" name="NELM">    60</i>
    <i type="int" name="NELMDL">    -5</i>
    <i type="int" name="NELMIN">     6</i>
    <i name="ENINI">    600.00000000</i>
    <separator name="electronic convergence detail" >
     <i type="logical" name="LDIAG"> T  </i>
     <i type="logical" name="LSUBROT"> F  </i>
     <i name="WEIMIN">      0.00000000</i>
     <i name="EBREAK">      0.00000000</i>
     <i name="DEPER">      0.30000000</i>
     <i type="int" name="NRMM">     4</i>
     <i name="TIME">      0.40000000</i>
    </separator>
   </separator>
   <separator name="electronic mixer" >
    <i name="AMIX">      0.40000000</i>
    <i name="BMIX">      1.00000000</i>
    <i name="AMIN">      0.10000000</i>
    <i name="AMIX_MAG">      1.60000000</i>
    <i name="BMIX_MAG">      1.00000000</i>
    <separator name="electronic mixer details" >
     <i type="int" name="IMIX">     4</i>
     <i type="logical" name="MIXFIRST"> F  </i>
     <i type="int" name="MAXMIX">   -45</i>
     <i name="WC">    100.00000000</i>
     <i type="int" name="INIMIX">     1</i>
     <i type="int" name="MIXPRE">     1</i>
     <i type="int" name="MREMOVE">     5</i>
    </separator>
   </separator>
   <separator name="electronic dipolcorrection" >
    <i type="logical" name="LDIPOL"> F  </i>
    <i type="logical" name="LMONO"> F  </i>
    <i type="int" name="IDIPOL">     0</i>
    <i name="EPSILON">      1.00000000</i>
    <v name="DIPOL">   -100.00000000   -100.00000000   -100.00000000</v>
    <i name="EFIELD">      0.00000000</i>
   </separator>
  </separator>
  <separator name="grids" >
   <i type="int" name="NGX">    48</i>
   <i type="int" name="NGY">    48</i>
   <i type="int" name="NGZ">   120</i>
   <i type="int" name="NGXF">    96</i>
   <i type="int" name="NGYF">    96</i>
   <i type="int" name="NGZF">   240</i>
   <i type="logical" name="ADDGRID"> F  </i>
  </separator>
  <separator name="ionic" >
   <i type="int" name="NSW">     0</i>
   <i type="int" name="IBRION">    -1</i>
   <i type="int" name="MDALGO">     0</i>
   <i type="int" name="ISIF">     2</i>
   <i name="PSTRESS">      0.00000000</i>
   <i name="EDIFFG">     -0.00000100</i>
   <i type="int" name="NFREE">     0</i>
   <i name="POTIM">      0.50000000</i>
   <i name="SMASS">     -3.00000000</i>
   <i name="SCALEE">      1.00000000</i>
  </separator>
  <separator name="ionic md" >
   <i name="TEBEG">      0.00010000</i>
   <i name="TEEND">      0.00010000</i>
   <i type="int" name="NBLOCK">     1</i>
   <i type="int" name="KBLOCK">     1</i>
   <i type="int" name="NPACO">   256</i>
   <i name="APACO">     10.00000000</i>
  </separator>
  <separator name="symmetry" >
   <i type="int" name="ISYM">     2</i>
   <i name="SYMPREC">      0.00001000</i>
  </separator>
  <separator name="dos" >
   <i type="int" name="LORBIT">     0</i>
   <v name="RWIGS">     -1.00000000</v>
   <i type="int" name="NEDOS">   301</i>
   <i name="EMIN">     10.00000000</i>
   <i name="EMAX">    -10.00000000</i>
   <i name="EFERMI">      0.00000000</i>
  </separator>
  <separator name="writing" >
   <i type="int" name="NWRITE">     2</i>
   <i type="logical" name="LWAVE"> F  </i>
   <i type="logical" name="LDOWNSAMPLE"> F  </i>
   <i type="logical" name="LCHARG"> F  </i>
   <i type="logical" name="LPARD"> F  </i>
   <i type="logical" name="LVTOT"> F  </i>
   <i type="logical" name="LVHAR"> F  </i>
   <i type="logical" name="LELF"> F  </i>
   <i type="logical" name="LOPTICS"> F  </i>
   <v name="STM">      0.00000000      0.00000000      0.00000000      0.00000000      0.00000000      0.00000000      0.00000000</v>
  </separator>
  <separator name="performance" >
   <i type="int" name="NPAR">     2</i>
   <i type="int" name="NSIM">     4</i>
   <i type="int" name="NBLK">    -1</i>
   <i type="logical" name="LPLANE"> T  </i>
   <i type="logical" name="LSCALAPACK"> T  </i>
   <i type="logical" name="LSCAAWARE"> F  </i>
   <i type="logical" name="LSCALU"> F  </i>
   <i type="logical" name="LASYNC"> F  </i>
   <i type="logical" name="LORBITALREAL"> F  </i>
  </separator>
  <separator name="miscellaneous" >
   <i type="int" name="IDIOT">     3</i>
   <i type="int" name="PHON_NSTRUCT">    -1</i>
   <i type="logical" name="LMUSIC"> F  </i>
   <v name="POMASS">     12.01100000</v>
   <v name="DARWINR">      0.00000000</v>
   <v name="DARWINV">      1.00000000</v>
   <i type="logical" name="LCORR"> T  </i>
  </separator>
  <i type="logical" name="GGA_COMPAT"> T  </i>
  <i type="logical" name="LBERRY"> F  </i>
  <i type="int" name="ICORELEVEL">     0</i>
  <i type="logical" name="LDAU"> F  </i>
  <i type="int" name="I_CONSTRAINED_M">     0</i>
  <separator name="electronic exchange-correlation" >
   <i type="string" name="GGA">--</i>
   <i type="int" name="VOSKOWN">     0</i>
   <i type="logical" name="LHFCALC"> F  </i>
   <i type="string" name="PRECFOCK"></i>
   <i type="logical" name="LSYMGRAD"> F  </i>
   <i type="logical" name="LHFONE"> F  </i>
   <i type="logical" name="LRHFCALC"> F  </i>
   <i type="logical" name="LTHOMAS"> F  </i>
   <i type="logical" name="LMODELHF"> F  </i>
   <i type="logical" name="LFOCKACE"> F  </i>
   <i name="ENCUT4O">     -1.00000000</i>
   <i type="int" name="EXXOEP">     0</i>
   <i type="int" name="FOURORBIT">     0</i>
   <i name="AEXX">      0.00000000</i>
   <i name="HFALPHA">      0.00000000</i>
   <i name="MCALPHA">      0.00000000</i>
   <i name="ALDAX">      1.00000000</i>
   <i name="AGGAX">      1.00000000</i>
   <i name="ALDAC">      1.00000000</i>
   <i name="AGGAC">      1.00000000</i>
   <i type="int" name="NKREDX">     1</i>
   <i type="int" name="NKREDY">     1</i>
   <i type="int" name="NKREDZ">     1</i>
   <i type="logical" name="SHIFTRED"> F  </i>
   <i type="logical" name="ODDONLY"> F  </i>
   <i type="logical" name="EVENONLY"> F  </i>
   <i type="int" name="LMAXFOCK">     0</i>
   <i type="int" name="NMAXFOCKAE">     0</i>
   <i type="logical" name="LFOCKAEDFT"> F  </i>
   <i name="HFSCREEN">      0.00000000</i>
   <i name="HFSCREENC">      0.00000000</i>
   <i type="int" name="NBANDSGWLOW">     0</i>
  </separator>
  <separator name="vdW DFT" >
   <i type="logical" name="LUSE_VDW"> F  </i>
   <i type="int" name="IVDW_NL">     1</i>
   <i type="logical" name="LSPIN_VDW"> F  </i>
   <i name="Zab_VDW">     -0.84910000</i>
   <i name="PARAM1">      0.12340000</i>
   <i name="PARAM2">      1.00000000</i>
   <i name="PARAM3">      0.00000000</i>
  </separator>
  <separator name="model GW" >
   <i type="int" name="MODEL_GW">     0</i>
   <i name="MODEL_EPS0">     31.63027863</i>
   <i name="MODEL_ALPHA">      1.00000000</i>
  </separator>
  <separator name="linear response parameters" >
   <i type="logical" name="LEPSILON"> F  </i>
   <i type="logical" name="LRPA"> F  </i>
   <i type="logical" name="LNABLA"> F  </i>
   <i type="logical" name="LVEL"> F  </i>
   <i name="CSHIFT">      0.10000000</i>
   <i name="OMEGAMAX">     -1.00000000</i>
   <i name="DEG_THRESHOLD">      0.00200000</i>
   <i name="RTIME">     -0.10000000</i>
   <i name="WPLASMAI">      0.00000000</i>
   <v name="DFIELD">      0.00000000      0.00000000      0.00000000</v>
   <v name="WPLASMA">      0.00000000      0.00000000      0.00000000      0.00000000      0.00000000      0.00000000      0.00000000      0.00000000      0.00000000</v>
  </separator>
  <separator name="orbital magnetization" >
   <i type="logical" name="NUCIND"> F  </i>
   <v name="MAGPOS">      0.00000000      0.00000000      0.00000000</v>
   <i type="logical" name="LNICSALL"> T  </i>
   <i type="logical" name="ORBITALMAG"> F  </i>
   <i type="logical" name="LMAGBLOCH"> F  </i>
   <i type="logical" name="LCHIMAG"> F  </i>
   <i type="logical" name="LGAUGE"> T  </i>
   <i type="int" name="MAGATOM">     0</i>
   <v name="MAGDIPOL">      0.00000000      0.00000000      0.00000000</v>
   <v name="AVECCONST">      0.00000000      0.00000000      0.00000000</v>
  </separator>
  <separator name="response functions" >
   <i type="logical" name="LALL_IN_ONE"> F  </i>
   <i type="int" name="IALL_IN_ONE">    -1</i>
   <i type="int" name="NBANDS_WAVE">    -1</i>
   <i type="logical" name="LFINITE_TEMPERATURE"> F  </i>
   <i type="logical" name="LADDER"> F  </i>
   <i type="logical" name="LRPAFORCE"> F  </i>
   <i type="logical" name="LFXC"> F  </i>
   <i type="logical" name="LHARTREE"> T  </i>
   <i type="int" name="IBSE">     0</i>
   <v type="int" name="KPOINT">    -1     0     0     0</v>
   <i type="logical" name="LTCTC"> F  </i>
   <i type="logical" name="LTCTE"> F  </i>
   <i type="logical" name="LTETE"> F  </i>
   <i type="logical" name="LTRIPLET"> F  </i>
   <i type="logical" name="LFXCEPS"> F  </i>
   <i type="logical" name="LFXHEG"> F  </i>
   <i type="int" name="NATURALO">     2</i>
   <i type="logical" name="LHOLEGF"> F  </i>
   <i type="logical" name="L2ORDER"> F  </i>
   <i type="logical" name="LDMP1"> F  </i>
   <i type="logical" name="LMP2LT"> F  </i>
   <i type="logical" name="LSMP2LT"> F  </i>
   <i type="logical" name="LGWLF"> F  </i>
   <i name="ENCUTGW">     -1.60000002</i>
   <i name="ENCUTGWSOFT">     -1.60000002</i>
   <i name="ENCUTLF">     -1.00000000</i>
   <i type="logical" name="LESF_SPLINES"> F  </i>
   <i type="int" name="LMAXMP2">    -1</i>
   <i name="SCISSOR">      0.00000000</i>
   <i type="int" name="NOMEGA">     0</i>
   <i type="int" name="NOMEGAR">     0</i>
   <i type="int" name="NBANDSGW">    -1</i>
   <i type="int" name="NBANDSO">    -1</i>
   <i type="int" name="NBANDSV">    -1</i>
   <i type="int" name="NELMGW">     1</i>
   <i type="int" name="NELMHF">     1</i>
   <i type="int" name="DIM">     3</i>
   <i type="int" name="IESPILON">     4</i>
   <i type="int" name="ANTIRES">     0</i>
   <i name="OMEGAMAX">    -30.00000000</i>
   <i name="OMEGAMIN">    -30.00000000</i>
   <i name="OMEGATL">   -200.00000000</i>
   <i type="int" name="OMEGAGRID">     0</i>
   <i name="CSHIFT">     -0.10000000</i>
   <i type="logical" name="LSELFENERGY"> F  </i>
   <i type="logical" name="LSPECTRAL"> F  </i>
   <i type="logical" name="LSPECTRALGW"> F  </i>
   <i type="logical" name="LSINGLES"> F  </i>
   <i type="logical" name="LFERMIGW"> F  </i>
   <i type="logical" name="ODDONLYGW"> F  </i>
   <i type="logical" name="EVENONLYGW"> F  </i>
   <i type="int" name="NKREDLFX">     1</i>
   <i type="int" name="NKREDLFY">     1</i>
   <i type="int" name="NKREDLFZ">     1</i>
   <i type="int" name="MAXMEM">  2800</i>
   <i type="int" name="TELESCOPE">     0</i>
   <i type="int" name="NTAUPAR">    -1</i>
   <i type="int" name="NOMEGAPAR">    -1</i>
   <i name="DAMP_NEWTON">      0.80000001</i>
   <i name="LAMBDA">      1.00000000</i>
  </separator>
  <separator name="External order field" >
   <i name="OFIELD_KAPPA">      0.00000000</i>
   <v name="OFIELD_K">      0.00000000      0.00000000      0.00000000</v>
   <i name="OFIELD_Q6_NEAR">      0.00000000</i>
   <i name="OFIELD_Q6_FAR">      0.00000000</i>
   <i name="OFIELD_A">      0.00000000</i>
  </separator>
  <separator name="optional k-points parameters" >
   <i type="int" name="KPOINTS_OPT_MODE">     1</i>
   <i type="logical" name="LKPOINTS_OPT"> F  </i>
  </separator>
 </parameters>
 <atominfo>
  <atoms>      18 </atoms>
  <types>       1 </types>
  <array name="atoms" >
   <dimension dim="1">ion</dimension>
   <field type="string">element</field>
   <field type="int">atomtype</field>
   <set>
    <rc><c>C </c><c>   1</c></rc>
    <rc><c>C </c><c>   1</c></rc>
    <rc><c>C </c><c>   1</c></rc>
    <rc><c>C </c><c>   1</c></rc>
    <rc><c>C </c><c>   1</c></rc>
    <rc><c>C </c><c>   1</c></rc>
    <rc><c>C </c><c>   1</c></rc>
    <rc><c>C </c><c>   1</c></rc>
    <rc><c>C </c><c>   1</c></rc>
    <rc><c>C </c><c>   1</c></rc>
    <rc><c>C </c><c>   1</c></rc>
    <rc><c>C </c><c>   1</c></rc>
    <rc><c>C </c><c>   1</c></rc>
    <rc><c>C </c><c>   1</c></rc>
    <rc><c>C </c><c>   1</c></rc>
    <rc><c>C </c><c>   1</c></rc>
    <rc><c>C </c><c>   1</c></rc>
    <rc><c>C </c><c>   1</c></rc>
   </set>
  </array>
  <array name="atomtypes" >
   <dimension dim="1">type</dimension>
   <field type="int">atomspertype</field>
   <field type="string">element</field>
   <field>mass</field>
   <field>valence</field>
   <field type="string">pseudopotential</field>
   <set>
    <rc><c>  18</c><c>C </c><c>     12.01100000</c><c>      4.00000000</c><c>  PAW_PBE C 08Apr2002                   </c></rc>
   </set>
  </array>
 </atominfo>
 <structure name="initialpos" >
  <crystal>
   <varray name="basis" >
    <v>       7.40170591       0.00000000       0.00000000 </v>
    <v>      -3.70085295       6.41006527       0.00000000 </v>
    <v>       0.00000000       0.00000000      20.00000000 </v>
   </varray>
   <i name="volume">    948.90835877 </i>
   <varray name="rec_basis" >
    <v>       0.13510399       0.07800233       0.00000000 </v>
    <v>       0.00000000       0.15600465       0.00000000 </v>
    <v>       0.00000000       0.00000000       0.05000000 </v>
   </varray>
  </crystal>
  <varray name="positions" >
   <v>       0.99921998       0.99843995       0.50050000 </v>
   <v>       0.33333333       0.00000000       0.50000000 </v>
   <v>       0.66666667       0.00000000       0.50000000 </v>
   <v>       0.00000000       0.33333333       0.50000000 </v>
   <v>       0.33333333       0.33333333       0.50000000 </v>
   <v>       0.66666667       0.33333333       0.50000000 </v>
   <v>       0.00000000       0.66666667       0.50000000 </v>
   <v>       0.33333333       0.66666667       0.50000000 </v>
   <v>       0.66666667       0.66666667       0.50000000 </v>
   <v>       0.22222222       0.11111111       0.50000000 </v>
   <v>       0.55555556       0.11111111       0.50000000 </v>
   <v>       0.88888889       0.11111111       0.50000000 </v>
   <v>       0.22222222       0.44444444       0.50000000 </v>
   <v>       0.55555556       0.44444444       0.50000000 </v>
   <v>       0.88888889       0.44444444       0.50000000 </v>
   <v>       0.22222222       0.77777778       0.50000000 </v>
   <v>       0.55555556       0.77777778       0.50000000 </v>
   <v>       0.88888889       0.77777778       0.50000000 </v>
  </varray>
 </structure>
 <calculation>
  <scstep>
   <time name="dav">    3.84    3.96</time>
   <time name="total">    3.93    4.06</time>
   <energy>
    <i name="alphaZ">     28.04858418 </i>
    <i name="ewald">  11638.84069520 </i>
    <i name="hartreedc"> -13553.15832427 </i>
    <i name="XCdc">    237.17731939 </i>
    <i name="pawpsdc">   1953.39683484 </i>
    <i name="pawaedc">  -1963.64613940 </i>
    <i name="eentropy">     -0.01208834 </i>
    <i name="bandstr">   -254.92354671 </i>
    <i name="atom">   2648.70517965 </i>
    <i name="e_fr_energy">    734.42851456 </i>
    <i name="e_wo_entrp">    734.44060289 </i>
    <i name="e_0_energy">    734.43455873 </i>
   </energy>
  </scstep>
  <scstep>
   <time name="dav">    5.16    4.16</time>
   <time name="total">    5.16    4.17</time>
   <energy>
    <i name="e_fr_energy">    -25.02181833 </i>
    <i name="e_wo_entrp">    -25.02155336 </i>
    <i name="e_0_energy">    -25.02168584 </i>
   </energy>
  </scstep>
  <scstep>
   <time name="dav">    4.12    4.23</time>
   <time name="total">    4.13    4.22</time>
   <energy>
    <i name="e_fr_energy">   -172.39865957 </i>
    <i name="e_wo_entrp">   -172.39726192 </i>
    <i name="e_0_energy">   -172.39796075 </i>
   </energy>
  </scstep>
  <scstep>
   <time name="dav">    4.15    4.28</time>
   <time name="total">    4.15    4.28</time>
   <energy>
    <i name="e_fr_energy">   -177.35306415 </i>
    <i name="e_wo_entrp">   -177.35089862 </i>
    <i name="e_0_energy">   -177.35198139 </i>
   </energy>
  </scstep>
  <scstep>
   <time name="dav">    4.65    4.85</time>
   <time name="total">    4.82    5.04</time>
   <energy>
    <i name="e_fr_energy">   -177.48545042 </i>
    <i name="e_wo_entrp">   -177.48329636 </i>
    <i name="e_0_energy">   -177.48437339 </i>
   </energy>
  </scstep>
  <scstep>
   <time name="dav">    3.87    4.03</time>
   <time name="total">    4.13    4.30</time>
   <energy>
    <i name="e_fr_energy">   -169.31819426 </i>
    <i name="e_wo_entrp">   -169.31600350 </i>
    <i name="e_0_energy">   -169.31709888 </i>
   </energy>
  </scstep>
  <scstep>
   <time name="dav">    3.84    3.98</time>
   <time name="total">    4.09    4.25</time>
   <energy>
    <i name="e_fr_energy">   -166.15063094 </i>
    <i name="e_wo_entrp">   -166.14842444 </i>
    <i name="e_0_energy">   -166.14952769 </i>
   </energy>
  </scstep>
  <scstep>
   <time name="dav">    4.07    4.22</time>
   <time name="total">    4.33    4.48</time>
   <energy>
    <i name="e_fr_energy">   -166.08757089 </i>
    <i name="e_wo_entrp">   -166.08537069 </i>
    <i name="e_0_energy">   -166.08647079 </i>
   </energy>
  </scstep>
  <scstep>
   <time name="dav">    4.09    3.14</time>
   <time name="total">    4.35    3.41</time>
   <energy>
    <i name="e_fr_energy">   -166.07500831 </i>
    <i name="e_wo_entrp">   -166.07280614 </i>
    <i name="e_0_energy">   -166.07390722 </i>
   </energy>
  </scstep>
  <scstep>
   <time name="dav">    3.77    3.90</time>
   <time name="total">    4.03    4.17</time>
   <energy>
    <i name="e_fr_energy">   -166.05612978 </i>
    <i name="e_wo_entrp">   -166.05392614 </i>
    <i name="e_0_energy">   -166.05502796 </i>
   </energy>
  </scstep>
  <scstep>
   <time name="dav">    3.82    3.96</time>
   <time name="total">    4.08    4.23</time>
   <energy>
    <i name="e_fr_energy">   -166.05989498 </i>
    <i name="e_wo_entrp">   -166.05769251 </i>
    <i name="e_0_energy">   -166.05879375 </i>
   </energy>
  </scstep>
  <scstep>
   <time name="dav">    3.62    3.75</time>
   <time name="total">    3.88    4.02</time>
   <energy>
    <i name="e_fr_energy">   -166.06456850 </i>
    <i name="e_wo_entrp">   -166.06236619 </i>
    <i name="e_0_energy">   -166.06346734 </i>
   </energy>
  </scstep>
  <scstep>
   <time name="dav">    3.82    3.96</time>
   <time name="total">    4.08    4.23</time>
   <energy>
    <i name="e_fr_energy">   -166.06889327 </i>
    <i name="e_wo_entrp">   -166.06669045 </i>
    <i name="e_0_energy">   -166.06779186 </i>
   </energy>
  </scstep>
  <scstep>
   <time name="dav">    3.63    3.77</time>
   <time name="total">    3.89    4.04</time>
   <energy>
    <i name="e_fr_energy">   -166.07256029 </i>
    <i name="e_wo_entrp">   -166.07035743 </i>
    <i name="e_0_energy">   -166.07145886 </i>
   </energy>
  </scstep>
  <scstep>
   <time name="dav">    3.83    3.97</time>
   <time name="total">    4.09    4.24</time>
   <energy>
    <i name="e_fr_energy">   -166.07372900 </i>
    <i name="e_wo_entrp">   -166.07152618 </i>
    <i name="e_0_energy">   -166.07262759 </i>
   </energy>
  </scstep>
  <scstep>
   <time name="dav">    3.89    4.03</time>
   <time name="total">    4.16    4.31</time>
   <energy>
    <i name="e_fr_energy">   -166.07389479 </i>
    <i name="e_wo_entrp">   -166.07169202 </i>
    <i name="e_0_energy">   -166.07279341 </i>
   </energy>
  </scstep>
  <scstep>
   <time name="dav">    3.42    2.38</time>
   <time name="total">    3.67    2.65</time>
   <energy>
    <i name="e_fr_energy">   -166.07410228 </i>
    <i name="e_wo_entrp">   -166.07189957 </i>
    <i name="e_0_energy">   -166.07300093 </i>
   </energy>
  </scstep>
  <scstep>
   <time name="dav">    3.33    3.44</time>
   <time name="total">    3.59    3.72</time>
   <energy>
    <i name="e_fr_energy">   -166.07414239 </i>
    <i name="e_wo_entrp">   -166.07193962 </i>
    <i name="e_0_energy">   -166.07304101 </i>
   </energy>
  </scstep>
  <scstep>
   <time name="dav">    3.31    3.43</time>
   <time name="total">    3.58    3.71</time>
   <energy>
    <i name="e_fr_energy">   -166.07418044 </i>
    <i name="e_wo_entrp">   -166.07197765 </i>
    <i name="e_0_energy">   -166.07307905 </i>
   </energy>
  </scstep>
  <scstep>
   <time name="dav">    2.81    2.91</time>
   <time name="total">    3.07    3.18</time>
   <energy>
    <i name="e_fr_energy">   -166.07419907 </i>
    <i name="e_wo_entrp">   -166.07199632 </i>
    <i name="e_0_energy">   -166.07309770 </i>
   </energy>
  </scstep>
  <scstep>
   <time name="dav">    2.59    2.69</time>
   <time name="total">    2.85    2.95</time>
   <energy>
    <i name="e_fr_energy">   -166.07420774 </i>
    <i name="e_wo_entrp">   -166.07200498 </i>
    <i name="e_0_energy">   -166.07310636 </i>
   </energy>
  </scstep>
  <scstep>
   <time name="dav">    2.55    2.65</time>
   <time name="total">    2.82    2.92</time>
   <energy>
    <i name="e_fr_energy">   -166.07421012 </i>
    <i name="e_wo_entrp">   -166.07200736 </i>
    <i name="e_0_energy">   -166.07310874 </i>
   </energy>
  </scstep>
  <scstep>
   <time name="dav">    2.69    2.79</time>
   <time name="total">    2.78    2.88</time>
   <energy>
    <i name="alphaZ">     28.04858418 </i>
    <i name="ewald">  11638.84069520 </i>
    <i name="hartreedc"> -13861.49358250 </i>
    <i name="XCdc">    247.81378346 </i>
    <i name="pawpsdc">   7452.76290388 </i>
    <i name="pawaedc">  -7465.02623823 </i>
    <i name="eentropy">     -0.00220276 </i>
    <i name="bandstr">   -855.72333327 </i>
    <i name="atom">   2648.70517965 </i>
    <i name="e_fr_energy">   -166.07421038 </i>
    <i name="e_wo_entrp">   -166.07200761 </i>
    <i name="e_0_energy">   -166.07310899 </i>
   </energy>
  </scstep>
  <structure>
   <crystal>
    <varray name="basis" >
     <v>       7.40170591       0.00000000       0.00000000 </v>
     <v>      -3.70085295       6.41006527       0.00000000 </v>
     <v>       0.00000000       0.00000000      20.00000000 </v>
    </varray>
    <i name="volume">    948.90835877 </i>
    <varray name="rec_basis" >
     <v>       0.13510399       0.07800233       0.00000000 </v>
     <v>       0.00000000       0.15600465       0.00000000 </v>
     <v>       0.00000000       0.00000000       0.05000000 </v>
    </varray>
   </crystal>
   <varray name="positions" >
    <v>       0.99921998       0.99843995       0.50050000 </v>
    <v>       0.33333333       0.00000000       0.50000000 </v>
    <v>       0.66666667       0.00000000       0.50000000 </v>
    <v>       0.00000000       0.33333333       0.50000000 </v>
    <v>       0.33333333       0.33333333       0.50000000 </v>
    <v>       0.66666667       0.33333333       0.50000000 </v>
    <v>       0.00000000       0.66666667       0.50000000 </v>
    <v>       0.33333333       0.66666667       0.50000000 </v>
    <v>       0.66666667       0.66666667       0.50000000 </v>
    <v>       0.22222222       0.11111111       0.50000000 </v>
    <v>       0.55555556       0.11111111       0.50000000 </v>
    <v>       0.88888889       0.11111111       0.50000000 </v>
    <v>       0.22222222       0.44444444       0.50000000 </v>
    <v>       0.55555556       0.44444444       0.50000000 </v>
    <v>       0.88888889       0.44444444       0.50000000 </v>
    <v>       0.22222222       0.77777778       0.50000000 </v>
    <v>       0.55555556       0.77777778       0.50000000 </v>
    <v>       0.88888889       0.77777778       0.50000000 </v>
   </varray>
  </structure>
  <varray name="forces" >
   <v>       0.00000000       0.60499844      -0.14304518 </v>
   <v>      -0.01372858       0.02440006      -0.00492188 </v>
   <v>       0.01372858       0.02440006      -0.00492188 </v>
   <v>       0.01856455      -0.03150992      -0.00456751 </v>
   <v>      -0.01856455      -0.03150992      -0.00456751 </v>
   <v>      -0.00000000      -0.03068396       0.00213566 </v>
   <v>       0.04627528      -0.03204810      -0.00501286 </v>
   <v>      -0.00000000      -0.03069411       0.00213526 </v>
   <v>      -0.04627528      -0.03204810      -0.00501286 </v>
   <v>      -0.05314447      -0.13896730       0.06236301 </v>
   <v>       0.00000000       0.02529094      -0.00917527 </v>
   <v>       0.05314447      -0.13896730       0.06236301 </v>
   <v>       0.00000000       0.03184049       0.00339732 </v>
   <v>      -0.01038227       0.00727966      -0.00906353 </v>
   <v>       0.01038227       0.00727966      -0.00906353 </v>
   <v>      -0.02321167      -0.00842395       0.00335502 </v>
   <v>       0.02321167      -0.00842395       0.00335502 </v>
   <v>      -0.00000000      -0.24221268       0.06024772 </v>
  </varray>
  <varray name="stress" >
   <v>      -0.22745927      -0.00000000       0.00000000 </v>
   <v>      -0.00000000      -0.08680617       0.00884790 </v>
   <v>       0.00000000       0.00884789      -0.57314084 </v>
  </varray>
  <energy>
   <i name="e_fr_energy">   -166.07421038 </i>
   <i name="e_wo_entrp">   -166.07200761 </i>
   <i name="e_0_energy">   -166.07310899 </i>
  </energy>
  <time name="totalsc">   93.07   93.01</time>
  <eigenvalues>
   <array>
    <dimension dim="1">band</dimension>
    <dimension dim="2">kpoint</dimension>
    <dimension dim="3">spin</dimension>
    <field>eigene</field>
    <field>occ</field>
    <set>
     <set comment="spin 1">
      <set comment="kpoint 1">
       <r>  -22.2559    1.0000 </r>
       <r>  -19.6959    1.0000 </r>
       <r>  -19.6748    1.0000 </r>
       <r>  -19.6743    1.0000 </r>
       <r>  -19.6718    1.0000 </r>
       <r>  -19.6690    1.0000 </r>
       <r>  -19.6544    1.0000 </r>
       <r>  -15.3579    1.0000 </r>
       <r>  -15.3407    1.0000 </r>
       <r>  -15.3329    1.0000 </r>
       <r>  -15.3315    1.0000 </r>
       <r>  -13.2920    1.0000 </r>
       <r>  -13.2873    1.0000 </r>
       <r>  -12.3991    1.0000 </r>
       <r>  -12.3809    1.0000 </r>
       <r>  -12.3756    1.0000 </r>
       <r>  -12.3738    1.0000 </r>
       <r>  -12.3633    1.0000 </r>
       <r>  -12.3548    1.0000 </r>
       <r>  -10.3599    1.0000 </r>
       <r>   -8.5503    1.0000 </r>
       <r>   -8.5277    1.0000 </r>
       <r>   -8.5236    1.0000 </r>
       <r>   -8.5230    1.0000 </r>
       <r>   -8.5202    1.0000 </r>
       <r>   -8.4962    1.0000 </r>
       <r>   -7.3898    1.0000 </r>
       <r>   -7.3717    1.0000 </r>
       <r>   -7.3714    1.0000 </r>
       <r>   -7.3696    1.0000 </r>
       <r>   -7.3683    1.0000 </r>
       <r>   -7.3543    1.0000 </r>
       <r>   -5.8007    1.0000 </r>
       <r>   -5.7679    1.0000 </r>
       <r>   -2.7715    0.6771 </r>
       <r>   -2.7553    0.5004 </r>
       <r>   -2.7527    0.4720 </r>
       <r>   -2.7417    0.3505 </r>
       <r>    0.5196    0.0000 </r>
       <r>    1.3123    0.0000 </r>
       <r>    1.6363    0.0000 </r>
       <r>    2.1188    0.0000 </r>
       <r>    2.1433    0.0000 </r>
       <r>    2.1450    0.0000 </r>
       <r>    2.1463    0.0000 </r>
       <r>    2.1555    0.0000 </r>
      </set>
      <set comment="kpoint 2">
       <r>  -22.2023    1.0000 </r>
       <r>  -20.3490    1.0000 </r>
       <r>  -19.9912    1.0000 </r>
       <r>  -19.9775    1.0000 </r>
       <r>  -19.2694    1.0000 </r>
       <r>  -19.2556    1.0000 </r>
       <r>  -18.9059    1.0000 </r>
       <r>  -16.0020    1.0000 </r>
       <r>  -15.9883    1.0000 </r>
       <r>  -14.9202    1.0000 </r>
       <r>  -14.9071    1.0000 </r>
       <r>  -13.5951    1.0000 </r>
       <r>  -12.9792    1.0000 </r>
       <r>  -12.9669    1.0000 </r>
       <r>  -12.9583    1.0000 </r>
       <r>  -12.9504    1.0000 </r>
       <r>  -11.7435    1.0000 </r>
       <r>  -11.7307    1.0000 </r>
       <r>  -11.1139    1.0000 </r>
       <r>  -10.2959    1.0000 </r>
       <r>   -8.8707    1.0000 </r>
       <r>   -8.8562    1.0000 </r>
       <r>   -8.8304    1.0000 </r>
       <r>   -8.5142    1.0000 </r>
       <r>   -8.4994    1.0000 </r>
       <r>   -8.1360    1.0000 </r>
       <r>   -8.1276    1.0000 </r>
       <r>   -7.7189    1.0000 </r>
       <r>   -7.7069    1.0000 </r>
       <r>   -6.9282    1.0000 </r>
       <r>   -6.9164    1.0000 </r>
       <r>   -6.5585    1.0000 </r>
       <r>   -5.9987    1.0000 </r>
       <r>   -5.9058    1.0000 </r>
       <r>   -3.5327    1.0000 </r>
       <r>   -3.5203    1.0000 </r>
       <r>   -2.0118    0.0000 </r>
       <r>   -1.9978    0.0000 </r>
       <r>    0.5922    0.0000 </r>
       <r>    0.8787    0.0000 </r>
       <r>    1.3858    0.0000 </r>
       <r>    1.4637    0.0000 </r>
       <r>    1.4813    0.0000 </r>
       <r>    1.7108    0.0000 </r>
       <r>    2.6297    0.0000 </r>
       <r>    2.7505    0.0000 </r>
      </set>
      <set comment="kpoint 3">
       <r>  -22.2024    1.0000 </r>
       <r>  -20.3493    1.0000 </r>
       <r>  -19.9854    1.0000 </r>
       <r>  -19.9828    1.0000 </r>
       <r>  -19.2638    1.0000 </r>
       <r>  -19.2609    1.0000 </r>
       <r>  -18.9062    1.0000 </r>
       <r>  -15.9997    1.0000 </r>
       <r>  -15.9917    1.0000 </r>
       <r>  -14.9166    1.0000 </r>
       <r>  -14.9083    1.0000 </r>
       <r>  -13.6029    1.0000 </r>
       <r>  -12.9755    1.0000 </r>
       <r>  -12.9689    1.0000 </r>
       <r>  -12.9534    1.0000 </r>
       <r>  -12.9512    1.0000 </r>
       <r>  -11.7354    1.0000 </r>
       <r>  -11.7269    1.0000 </r>
       <r>  -11.1245    1.0000 </r>
       <r>  -10.2959    1.0000 </r>
       <r>   -8.8743    1.0000 </r>
       <r>   -8.8609    1.0000 </r>
       <r>   -8.8209    1.0000 </r>
       <r>   -8.5217    1.0000 </r>
       <r>   -8.5069    1.0000 </r>
       <r>   -8.1258    1.0000 </r>
       <r>   -8.1224    1.0000 </r>
       <r>   -7.7163    1.0000 </r>
       <r>   -7.7125    1.0000 </r>
       <r>   -6.9254    1.0000 </r>
       <r>   -6.9219    1.0000 </r>
       <r>   -6.5538    1.0000 </r>
       <r>   -6.0202    1.0000 </r>
       <r>   -5.8841    1.0000 </r>
       <r>   -3.5285    1.0000 </r>
       <r>   -3.5254    1.0000 </r>
       <r>   -2.0052    0.0000 </r>
       <r>   -2.0033    0.0000 </r>
       <r>    0.5922    0.0000 </r>
       <r>    0.8672    0.0000 </r>
       <r>    1.3859    0.0000 </r>
       <r>    1.4752    0.0000 </r>
       <r>    1.4772    0.0000 </r>
       <r>    1.7109    0.0000 </r>
       <r>    2.6297    0.0000 </r>
       <r>    2.7632    0.0000 </r>
      </set>
      <set comment="kpoint 4">
       <r>  -22.0418    1.0000 </r>
       <r>  -20.9266    1.0000 </r>
       <r>  -20.1996    1.0000 </r>
       <r>  -20.1860    1.0000 </r>
       <r>  -18.7623    1.0000 </r>
       <r>  -18.7483    1.0000 </r>
       <r>  -18.0630    1.0000 </r>
       <r>  -16.7520    1.0000 </r>
       <r>  -16.7380    1.0000 </r>
       <r>  -14.7509    1.0000 </r>
       <r>  -14.6307    1.0000 </r>
       <r>  -14.6190    1.0000 </r>
       <r>  -13.5061    1.0000 </r>
       <r>  -13.4947    1.0000 </r>
       <r>  -12.1901    1.0000 </r>
       <r>  -12.1764    1.0000 </r>
       <r>  -11.1074    1.0000 </r>
       <r>  -11.0943    1.0000 </r>
       <r>  -10.1047    1.0000 </r>
       <r>   -9.8560    1.0000 </r>
       <r>   -9.5012    1.0000 </r>
       <r>   -9.4863    1.0000 </r>
       <r>   -9.0418    1.0000 </r>
       <r>   -8.7927    1.0000 </r>
       <r>   -8.7640    1.0000 </r>
       <r>   -8.7504    1.0000 </r>
       <r>   -7.9502    1.0000 </r>
       <r>   -7.9382    1.0000 </r>
       <r>   -7.6762    1.0000 </r>
       <r>   -6.6157    1.0000 </r>
       <r>   -6.3830    1.0000 </r>
       <r>   -6.3713    1.0000 </r>
       <r>   -6.2233    1.0000 </r>
       <r>   -5.7674    1.0000 </r>
       <r>   -4.3046    1.0000 </r>
       <r>   -4.2928    1.0000 </r>
       <r>   -1.2908    0.0000 </r>
       <r>   -1.2756    0.0000 </r>
       <r>   -0.2331    0.0000 </r>
       <r>    0.7773    0.0000 </r>
       <r>    0.7941    0.0000 </r>
       <r>    0.8124    0.0000 </r>
       <r>    1.6066    0.0000 </r>
       <r>    1.9343    0.0000 </r>
       <r>    2.3341    0.0000 </r>
       <r>    2.8510    0.0000 </r>
      </set>
      <set comment="kpoint 5">
       <r>  -22.0419    1.0000 </r>
       <r>  -20.9268    1.0000 </r>
       <r>  -20.1937    1.0000 </r>
       <r>  -20.1913    1.0000 </r>
       <r>  -18.7571    1.0000 </r>
       <r>  -18.7536    1.0000 </r>
       <r>  -18.0627    1.0000 </r>
       <r>  -16.7486    1.0000 </r>
       <r>  -16.7424    1.0000 </r>
       <r>  -14.7591    1.0000 </r>
       <r>  -14.6259    1.0000 </r>
       <r>  -14.6196    1.0000 </r>
       <r>  -13.5004    1.0000 </r>
       <r>  -13.4940    1.0000 </r>
       <r>  -12.1858    1.0000 </r>
       <r>  -12.1841    1.0000 </r>
       <r>  -11.0971    1.0000 </r>
       <r>  -11.0876    1.0000 </r>
       <r>  -10.1046    1.0000 </r>
       <r>   -9.8687    1.0000 </r>
       <r>   -9.5035    1.0000 </r>
       <r>   -9.4925    1.0000 </r>
       <r>   -9.0307    1.0000 </r>
       <r>   -8.7924    1.0000 </r>
       <r>   -8.7734    1.0000 </r>
       <r>   -8.7605    1.0000 </r>
       <r>   -7.9475    1.0000 </r>
       <r>   -7.9440    1.0000 </r>
       <r>   -7.6610    1.0000 </r>
       <r>   -6.6363    1.0000 </r>
       <r>   -6.3802    1.0000 </r>
       <r>   -6.3768    1.0000 </r>
       <r>   -6.2018    1.0000 </r>
       <r>   -5.7598    1.0000 </r>
       <r>   -4.3010    1.0000 </r>
       <r>   -4.2978    1.0000 </r>
       <r>   -1.2828    0.0000 </r>
       <r>   -1.2815    0.0000 </r>
       <r>   -0.2477    0.0000 </r>
       <r>    0.7882    0.0000 </r>
       <r>    0.7891    0.0000 </r>
       <r>    0.8125    0.0000 </r>
       <r>    1.6066    0.0000 </r>
       <r>    1.9343    0.0000 </r>
       <r>    2.3341    0.0000 </r>
       <r>    2.8510    0.0000 </r>
      </set>
      <set comment="kpoint 6">
       <r>  -21.7750    1.0000 </r>
       <r>  -21.4027    1.0000 </r>
       <r>  -20.3042    1.0000 </r>
       <r>  -20.2906    1.0000 </r>
       <r>  -18.1652    1.0000 </r>
       <r>  -18.1511    1.0000 </r>
       <r>  -17.4883    1.0000 </r>
       <r>  -17.4742    1.0000 </r>
       <r>  -17.2299    1.0000 </r>
       <r>  -15.7420    1.0000 </r>
       <r>  -14.3289    1.0000 </r>
       <r>  -14.3173    1.0000 </r>
       <r>  -13.9574    1.0000 </r>
       <r>  -13.9463    1.0000 </r>
       <r>  -11.2652    1.0000 </r>
       <r>  -11.2505    1.0000 </r>
       <r>  -10.6082    1.0000 </r>
       <r>  -10.5957    1.0000 </r>
       <r>  -10.3338    1.0000 </r>
       <r>  -10.3191    1.0000 </r>
       <r>   -9.7878    1.0000 </r>
       <r>   -9.3486    1.0000 </r>
       <r>   -9.1486    1.0000 </r>
       <r>   -9.0895    1.0000 </r>
       <r>   -9.0799    1.0000 </r>
       <r>   -8.6409    1.0000 </r>
       <r>   -8.0666    1.0000 </r>
       <r>   -8.0546    1.0000 </r>
       <r>   -7.5326    1.0000 </r>
       <r>   -7.1740    1.0000 </r>
       <r>   -6.6705    1.0000 </r>
       <r>   -5.7525    1.0000 </r>
       <r>   -5.7408    1.0000 </r>
       <r>   -5.2019    1.0000 </r>
       <r>   -5.0524    1.0000 </r>
       <r>   -5.0410    1.0000 </r>
       <r>   -0.9641    0.0000 </r>
       <r>   -0.5935    0.0000 </r>
       <r>   -0.5773    0.0000 </r>
       <r>    0.0928    0.0000 </r>
       <r>    0.1095    0.0000 </r>
       <r>    1.1736    0.0000 </r>
       <r>    1.6817    0.0000 </r>
       <r>    1.9740    0.0000 </r>
       <r>    2.3067    0.0000 </r>
       <r>    2.4869    0.0000 </r>
      </set>
      <set comment="kpoint 7">
       <r>  -21.7751    1.0000 </r>
       <r>  -21.4027    1.0000 </r>
       <r>  -20.2982    1.0000 </r>
       <r>  -20.2959    1.0000 </r>
       <r>  -18.1607    1.0000 </r>
       <r>  -18.1562    1.0000 </r>
       <r>  -17.4841    1.0000 </r>
       <r>  -17.4791    1.0000 </r>
       <r>  -17.2262    1.0000 </r>
       <r>  -15.7530    1.0000 </r>
       <r>  -14.3238    1.0000 </r>
       <r>  -14.3175    1.0000 </r>
       <r>  -13.9520    1.0000 </r>
       <r>  -13.9459    1.0000 </r>
       <r>  -11.2630    1.0000 </r>
       <r>  -11.2579    1.0000 </r>
       <r>  -10.5935    1.0000 </r>
       <r>  -10.5832    1.0000 </r>
       <r>  -10.3343    1.0000 </r>
       <r>  -10.3259    1.0000 </r>
       <r>   -9.7875    1.0000 </r>
       <r>   -9.3479    1.0000 </r>
       <r>   -9.1371    1.0000 </r>
       <r>   -9.1073    1.0000 </r>
       <r>   -9.0932    1.0000 </r>
       <r>   -8.6557    1.0000 </r>
       <r>   -8.0640    1.0000 </r>
       <r>   -8.0604    1.0000 </r>
       <r>   -7.5500    1.0000 </r>
       <r>   -7.1576    1.0000 </r>
       <r>   -6.6508    1.0000 </r>
       <r>   -5.7499    1.0000 </r>
       <r>   -5.7460    1.0000 </r>
       <r>   -5.1911    1.0000 </r>
       <r>   -5.0489    1.0000 </r>
       <r>   -5.0462    1.0000 </r>
       <r>   -0.9826    0.0000 </r>
       <r>   -0.5838    0.0000 </r>
       <r>   -0.5835    0.0000 </r>
       <r>    0.1031    0.0000 </r>
       <r>    0.1038    0.0000 </r>
       <r>    1.1736    0.0000 </r>
       <r>    1.6818    0.0000 </r>
       <r>    1.9740    0.0000 </r>
       <r>    2.3067    0.0000 </r>
       <r>    2.4870    0.0000 </r>
      </set>
      <set comment="kpoint 8">
       <r>  -22.0953    1.0000 </r>
       <r>  -20.6143    1.0000 </r>
       <r>  -20.6077    1.0000 </r>
       <r>  -19.5238    1.0000 </r>
       <r>  -19.5148    1.0000 </r>
       <r>  -18.4583    1.0000 </r>
       <r>  -18.4515    1.0000 </r>
       <r>  -16.7784    1.0000 </r>
       <r>  -16.1642    1.0000 </r>
       <r>  -15.2354    1.0000 </r>
       <r>  -14.2594    1.0000 </r>
       <r>  -14.1653    1.0000 </r>
       <r>  -14.1536    1.0000 </r>
       <r>  -12.6016    1.0000 </r>
       <r>  -12.3094    1.0000 </r>
       <r>  -12.3009    1.0000 </r>
       <r>  -12.2716    1.0000 </r>
       <r>  -10.4966    1.0000 </r>
       <r>  -10.4790    1.0000 </r>
       <r>  -10.1682    1.0000 </r>
       <r>   -9.1882    1.0000 </r>
       <r>   -9.1747    1.0000 </r>
       <r>   -9.1272    1.0000 </r>
       <r>   -9.1142    1.0000 </r>
       <r>   -8.4286    1.0000 </r>
       <r>   -8.4232    1.0000 </r>
       <r>   -8.0824    1.0000 </r>
       <r>   -8.0632    1.0000 </r>
       <r>   -7.1959    1.0000 </r>
       <r>   -7.1876    1.0000 </r>
       <r>   -6.4165    1.0000 </r>
       <r>   -6.1236    1.0000 </r>
       <r>   -6.1067    1.0000 </r>
       <r>   -6.0992    1.0000 </r>
       <r>   -4.2555    1.0000 </r>
       <r>   -3.9032    1.0000 </r>
       <r>   -1.7053    0.0000 </r>
       <r>   -1.2688    0.0000 </r>
       <r>    0.2635    0.0000 </r>
       <r>    0.2774    0.0000 </r>
       <r>    0.7377    0.0000 </r>
       <r>    1.5331    0.0000 </r>
       <r>    1.8598    0.0000 </r>
       <r>    2.0089    0.0000 </r>
       <r>    2.0202    0.0000 </r>
       <r>    2.7773    0.0000 </r>
      </set>
      <set comment="kpoint 9">
       <r>  -22.0953    1.0000 </r>
       <r>  -20.6175    1.0000 </r>
       <r>  -20.6044    1.0000 </r>
       <r>  -19.5286    1.0000 </r>
       <r>  -19.5106    1.0000 </r>
       <r>  -18.4617    1.0000 </r>
       <r>  -18.4480    1.0000 </r>
       <r>  -16.7794    1.0000 </r>
       <r>  -16.1568    1.0000 </r>
       <r>  -15.2504    1.0000 </r>
       <r>  -14.2485    1.0000 </r>
       <r>  -14.1657    1.0000 </r>
       <r>  -14.1458    1.0000 </r>
       <r>  -12.6112    1.0000 </r>
       <r>  -12.3197    1.0000 </r>
       <r>  -12.3068    1.0000 </r>
       <r>  -12.2651    1.0000 </r>
       <r>  -10.4959    1.0000 </r>
       <r>  -10.4716    1.0000 </r>
       <r>  -10.1683    1.0000 </r>
       <r>   -9.1800    1.0000 </r>
       <r>   -9.1597    1.0000 </r>
       <r>   -9.1344    1.0000 </r>
       <r>   -9.1183    1.0000 </r>
       <r>   -8.4315    1.0000 </r>
       <r>   -8.4211    1.0000 </r>
       <r>   -8.0890    1.0000 </r>
       <r>   -8.0669    1.0000 </r>
       <r>   -7.1972    1.0000 </r>
       <r>   -7.1808    1.0000 </r>
       <r>   -6.3930    1.0000 </r>
       <r>   -6.1475    1.0000 </r>
       <r>   -6.1113    1.0000 </r>
       <r>   -6.1016    1.0000 </r>
       <r>   -4.2624    1.0000 </r>
       <r>   -3.8917    1.0000 </r>
       <r>   -1.7208    0.0000 </r>
       <r>   -1.2581    0.0000 </r>
       <r>    0.2716    0.0000 </r>
       <r>    0.2843    0.0000 </r>
       <r>    0.7377    0.0000 </r>
       <r>    1.5330    0.0000 </r>
       <r>    1.8597    0.0000 </r>
       <r>    1.9952    0.0000 </r>
       <r>    2.0167    0.0000 </r>
       <r>    2.7773    0.0000 </r>
      </set>
      <set comment="kpoint 10">
       <r>  -21.8816    1.0000 </r>
       <r>  -21.1378    1.0000 </r>
       <r>  -20.7689    1.0000 </r>
       <r>  -19.6745    1.0000 </r>
       <r>  -18.9579    1.0000 </r>
       <r>  -17.9164    1.0000 </r>
       <r>  -17.5954    1.0000 </r>
       <r>  -17.5713    1.0000 </r>
       <r>  -16.6726    1.0000 </r>
       <r>  -15.2516    1.0000 </r>
       <r>  -15.2449    1.0000 </r>
       <r>  -14.6404    1.0000 </r>
       <r>  -13.7324    1.0000 </r>
       <r>  -12.8164    1.0000 </r>
       <r>  -11.8934    1.0000 </r>
       <r>  -11.6826    1.0000 </r>
       <r>  -11.3921    1.0000 </r>
       <r>  -10.0459    1.0000 </r>
       <r>   -9.9253    1.0000 </r>
       <r>   -9.9133    1.0000 </r>
       <r>   -9.7040    1.0000 </r>
       <r>   -9.6302    1.0000 </r>
       <r>   -9.2874    1.0000 </r>
       <r>   -9.2561    1.0000 </r>
       <r>   -9.0379    1.0000 </r>
       <r>   -8.6061    1.0000 </r>
       <r>   -8.2494    1.0000 </r>
       <r>   -7.5865    1.0000 </r>
       <r>   -7.3539    1.0000 </r>
       <r>   -7.1438    1.0000 </r>
       <r>   -6.5704    1.0000 </r>
       <r>   -6.5443    1.0000 </r>
       <r>   -5.5767    1.0000 </r>
       <r>   -5.3885    1.0000 </r>
       <r>   -5.0714    1.0000 </r>
       <r>   -4.4371    1.0000 </r>
       <r>   -1.2901    0.0000 </r>
       <r>   -0.6803    0.0000 </r>
       <r>   -0.4307    0.0000 </r>
       <r>   -0.3068    0.0000 </r>
       <r>    1.0282    0.0000 </r>
       <r>    1.2301    0.0000 </r>
       <r>    1.8271    0.0000 </r>
       <r>    2.0446    0.0000 </r>
       <r>    2.1577    0.0000 </r>
       <r>    2.4017    0.0000 </r>
      </set>
      <set comment="kpoint 11">
       <r>  -21.8817    1.0000 </r>
       <r>  -21.1380    1.0000 </r>
       <r>  -20.7686    1.0000 </r>
       <r>  -19.6742    1.0000 </r>
       <r>  -18.9581    1.0000 </r>
       <r>  -17.9170    1.0000 </r>
       <r>  -17.5946    1.0000 </r>
       <r>  -17.5708    1.0000 </r>
       <r>  -16.6723    1.0000 </r>
       <r>  -15.2615    1.0000 </r>
       <r>  -15.2448    1.0000 </r>
       <r>  -14.6324    1.0000 </r>
       <r>  -13.7283    1.0000 </r>
       <r>  -12.8199    1.0000 </r>
       <r>  -11.8975    1.0000 </r>
       <r>  -11.6763    1.0000 </r>
       <r>  -11.3914    1.0000 </r>
       <r>  -10.0414    1.0000 </r>
       <r>   -9.9156    1.0000 </r>
       <r>   -9.9074    1.0000 </r>
       <r>   -9.7143    1.0000 </r>
       <r>   -9.6374    1.0000 </r>
       <r>   -9.2756    1.0000 </r>
       <r>   -9.2727    1.0000 </r>
       <r>   -9.0369    1.0000 </r>
       <r>   -8.6075    1.0000 </r>
       <r>   -8.2676    1.0000 </r>
       <r>   -7.5684    1.0000 </r>
       <r>   -7.3556    1.0000 </r>
       <r>   -7.1537    1.0000 </r>
       <r>   -6.5682    1.0000 </r>
       <r>   -6.5341    1.0000 </r>
       <r>   -5.5835    1.0000 </r>
       <r>   -5.3794    1.0000 </r>
       <r>   -5.0730    1.0000 </r>
       <r>   -4.4355    1.0000 </r>
       <r>   -1.2925    0.0000 </r>
       <r>   -0.6966    0.0000 </r>
       <r>   -0.4267    0.0000 </r>
       <r>   -0.2944    0.0000 </r>
       <r>    1.0282    0.0000 </r>
       <r>    1.2245    0.0000 </r>
       <r>    1.8272    0.0000 </r>
       <r>    2.0447    0.0000 </r>
       <r>    2.1577    0.0000 </r>
       <r>    2.4081    0.0000 </r>
      </set>
      <set comment="kpoint 12">
       <r>  -21.8816    1.0000 </r>
       <r>  -21.1380    1.0000 </r>
       <r>  -20.7687    1.0000 </r>
       <r>  -19.6747    1.0000 </r>
       <r>  -18.9582    1.0000 </r>
       <r>  -17.9169    1.0000 </r>
       <r>  -17.5945    1.0000 </r>
       <r>  -17.5724    1.0000 </r>
       <r>  -16.6684    1.0000 </r>
       <r>  -15.2618    1.0000 </r>
       <r>  -15.2469    1.0000 </r>
       <r>  -14.6317    1.0000 </r>
       <r>  -13.7210    1.0000 </r>
       <r>  -12.8270    1.0000 </r>
       <r>  -11.9057    1.0000 </r>
       <r>  -11.6891    1.0000 </r>
       <r>  -11.3827    1.0000 </r>
       <r>  -10.0328    1.0000 </r>
       <r>   -9.9188    1.0000 </r>
       <r>   -9.9122    1.0000 </r>
       <r>   -9.7148    1.0000 </r>
       <r>   -9.6218    1.0000 </r>
       <r>   -9.2881    1.0000 </r>
       <r>   -9.2596    1.0000 </r>
       <r>   -9.0376    1.0000 </r>
       <r>   -8.6066    1.0000 </r>
       <r>   -8.2594    1.0000 </r>
       <r>   -7.5817    1.0000 </r>
       <r>   -7.3529    1.0000 </r>
       <r>   -7.1302    1.0000 </r>
       <r>   -6.5677    1.0000 </r>
       <r>   -6.5571    1.0000 </r>
       <r>   -5.5847    1.0000 </r>
       <r>   -5.3888    1.0000 </r>
       <r>   -5.0776    1.0000 </r>
       <r>   -4.4257    1.0000 </r>
       <r>   -1.3073    0.0000 </r>
       <r>   -0.6794    0.0000 </r>
       <r>   -0.4182    0.0000 </r>
       <r>   -0.2921    0.0000 </r>
       <r>    1.0282    0.0000 </r>
       <r>    1.2185    0.0000 </r>
       <r>    1.8271    0.0000 </r>
       <r>    2.0447    0.0000 </r>
       <r>    2.1577    0.0000 </r>
       <r>    2.3983    0.0000 </r>
      </set>
      <set comment="kpoint 13">
       <r>  -21.5653    1.0000 </r>
       <r>  -21.5588    1.0000 </r>
       <r>  -20.8215    1.0000 </r>
       <r>  -19.7263    1.0000 </r>
       <r>  -18.3108    1.0000 </r>
       <r>  -18.3013    1.0000 </r>
       <r>  -17.3123    1.0000 </r>
       <r>  -17.3022    1.0000 </r>
       <r>  -16.9890    1.0000 </r>
       <r>  -15.9345    1.0000 </r>
       <r>  -15.0168    1.0000 </r>
       <r>  -15.0051    1.0000 </r>
       <r>  -13.2887    1.0000 </r>
       <r>  -13.2756    1.0000 </r>
       <r>  -11.3629    1.0000 </r>
       <r>  -10.9946    1.0000 </r>
       <r>  -10.9807    1.0000 </r>
       <r>  -10.5044    1.0000 </r>
       <r>  -10.4927    1.0000 </r>
       <r>   -9.9004    1.0000 </r>
       <r>   -9.6404    1.0000 </r>
       <r>   -9.5386    1.0000 </r>
       <r>   -9.5334    1.0000 </r>
       <r>   -9.3394    1.0000 </r>
       <r>   -8.6668    1.0000 </r>
       <r>   -8.4127    1.0000 </r>
       <r>   -8.1269    1.0000 </r>
       <r>   -8.1120    1.0000 </r>
       <r>   -7.4084    1.0000 </r>
       <r>   -7.0672    1.0000 </r>
       <r>   -7.0503    1.0000 </r>
       <r>   -5.8606    1.0000 </r>
       <r>   -5.8512    1.0000 </r>
       <r>   -5.0674    1.0000 </r>
       <r>   -5.0167    1.0000 </r>
       <r>   -5.0052    1.0000 </r>
       <r>   -1.0831    0.0000 </r>
       <r>   -0.8340    0.0000 </r>
       <r>   -0.8161    0.0000 </r>
       <r>    0.4040    0.0000 </r>
       <r>    0.4179    0.0000 </r>
       <r>    1.4638    0.0000 </r>
       <r>    1.4646    0.0000 </r>
       <r>    2.2673    0.0000 </r>
       <r>    2.2676    0.0000 </r>
       <r>    2.6045    0.0000 </r>
      </set>
      <set comment="kpoint 14">
       <r>  -21.5686    1.0000 </r>
       <r>  -21.5557    1.0000 </r>
       <r>  -20.8213    1.0000 </r>
       <r>  -19.7260    1.0000 </r>
       <r>  -18.3156    1.0000 </r>
       <r>  -18.2967    1.0000 </r>
       <r>  -17.3180    1.0000 </r>
       <r>  -17.2983    1.0000 </r>
       <r>  -16.9827    1.0000 </r>
       <r>  -15.9481    1.0000 </r>
       <r>  -15.0137    1.0000 </r>
       <r>  -15.0002    1.0000 </r>
       <r>  -13.2886    1.0000 </r>
       <r>  -13.2745    1.0000 </r>
       <r>  -11.3489    1.0000 </r>
       <r>  -10.9940    1.0000 </r>
       <r>  -10.9826    1.0000 </r>
       <r>  -10.5084    1.0000 </r>
       <r>  -10.4972    1.0000 </r>
       <r>   -9.9155    1.0000 </r>
       <r>   -9.6243    1.0000 </r>
       <r>   -9.5408    1.0000 </r>
       <r>   -9.5302    1.0000 </r>
       <r>   -9.3285    1.0000 </r>
       <r>   -8.6679    1.0000 </r>
       <r>   -8.4312    1.0000 </r>
       <r>   -8.1467    1.0000 </r>
       <r>   -8.1230    1.0000 </r>
       <r>   -7.4106    1.0000 </r>
       <r>   -7.0578    1.0000 </r>
       <r>   -7.0253    1.0000 </r>
       <r>   -5.8634    1.0000 </r>
       <r>   -5.8476    1.0000 </r>
       <r>   -5.0557    1.0000 </r>
       <r>   -5.0215    1.0000 </r>
       <r>   -5.0069    1.0000 </r>
       <r>   -1.1021    0.0000 </r>
       <r>   -0.8251    0.0000 </r>
       <r>   -0.8139    0.0000 </r>
       <r>    0.4028    0.0000 </r>
       <r>    0.4168    0.0000 </r>
       <r>    1.4635    0.0000 </r>
       <r>    1.4650    0.0000 </r>
       <r>    2.2673    0.0000 </r>
       <r>    2.2678    0.0000 </r>
       <r>    2.4889    0.0000 </r>
      </set>
      <set comment="kpoint 15">
       <r>  -21.6154    1.0000 </r>
       <r>  -21.2469    1.0000 </r>
       <r>  -21.2404    1.0000 </r>
       <r>  -19.0647    1.0000 </r>
       <r>  -19.0554    1.0000 </r>
       <r>  -18.3557    1.0000 </r>
       <r>  -17.0924    1.0000 </r>
       <r>  -17.0843    1.0000 </r>
       <r>  -16.7135    1.0000 </r>
       <r>  -15.6722    1.0000 </r>
       <r>  -15.6226    1.0000 </r>
       <r>  -15.6092    1.0000 </r>
       <r>  -12.9220    1.0000 </r>
       <r>  -12.2662    1.0000 </r>
       <r>  -12.2547    1.0000 </r>
       <r>  -11.3498    1.0000 </r>
       <r>  -10.5634    1.0000 </r>
       <r>  -10.5571    1.0000 </r>
       <r>  -10.5453    1.0000 </r>
       <r>   -9.8237    1.0000 </r>
       <r>   -9.8118    1.0000 </r>
       <r>   -9.5986    1.0000 </r>
       <r>   -9.1637    1.0000 </r>
       <r>   -9.1584    1.0000 </r>
       <r>   -8.8324    1.0000 </r>
       <r>   -8.8092    1.0000 </r>
       <r>   -7.8898    1.0000 </r>
       <r>   -7.6992    1.0000 </r>
       <r>   -7.6745    1.0000 </r>
       <r>   -7.0748    1.0000 </r>
       <r>   -6.6697    1.0000 </r>
       <r>   -6.6612    1.0000 </r>
       <r>   -5.8921    1.0000 </r>
       <r>   -5.0092    1.0000 </r>
       <r>   -4.9972    1.0000 </r>
       <r>   -4.6768    1.0000 </r>
       <r>   -1.2219    0.0000 </r>
       <r>   -1.0371    0.0000 </r>
       <r>   -1.0185    0.0000 </r>
       <r>    0.5249    0.0000 </r>
       <r>    1.3912    0.0000 </r>
       <r>    1.4784    0.0000 </r>
       <r>    1.4907    0.0000 </r>
       <r>    1.8999    0.0000 </r>
       <r>    1.9007    0.0000 </r>
       <r>    2.1943    0.0000 </r>
      </set>
      <set comment="kpoint 16">
       <r>  -21.6152    1.0000 </r>
       <r>  -21.2502    1.0000 </r>
       <r>  -21.2373    1.0000 </r>
       <r>  -19.0694    1.0000 </r>
       <r>  -19.0511    1.0000 </r>
       <r>  -18.3555    1.0000 </r>
       <r>  -17.0970    1.0000 </r>
       <r>  -17.0833    1.0000 </r>
       <r>  -16.7070    1.0000 </r>
       <r>  -15.6863    1.0000 </r>
       <r>  -15.6173    1.0000 </r>
       <r>  -15.6032    1.0000 </r>
       <r>  -12.9103    1.0000 </r>
       <r>  -12.2761    1.0000 </r>
       <r>  -12.2622    1.0000 </r>
       <r>  -11.3626    1.0000 </r>
       <r>  -10.5554    1.0000 </r>
       <r>  -10.5494    1.0000 </r>
       <r>  -10.5316    1.0000 </r>
       <r>   -9.8294    1.0000 </r>
       <r>   -9.8168    1.0000 </r>
       <r>   -9.5990    1.0000 </r>
       <r>   -9.1661    1.0000 </r>
       <r>   -9.1557    1.0000 </r>
       <r>   -8.8369    1.0000 </r>
       <r>   -8.8114    1.0000 </r>
       <r>   -7.8699    1.0000 </r>
       <r>   -7.6972    1.0000 </r>
       <r>   -7.6695    1.0000 </r>
       <r>   -7.0960    1.0000 </r>
       <r>   -6.6715    1.0000 </r>
       <r>   -6.6552    1.0000 </r>
       <r>   -5.8961    1.0000 </r>
       <r>   -5.0144    1.0000 </r>
       <r>   -5.0037    1.0000 </r>
       <r>   -4.6652    1.0000 </r>
       <r>   -1.2399    0.0000 </r>
       <r>   -1.0240    0.0000 </r>
       <r>   -1.0122    0.0000 </r>
       <r>    0.5347    0.0000 </r>
       <r>    1.3911    0.0000 </r>
       <r>    1.4693    0.0000 </r>
       <r>    1.4877    0.0000 </r>
       <r>    1.8996    0.0000 </r>
       <r>    1.9011    0.0000 </r>
       <r>    2.1942    0.0000 </r>
      </set>
     </set>
    </set>
   </array>
  </eigenvalues>
  <separator name="orbital magnetization" >
   <v name="MAGDIPOLOUT">      0.00000000      0.00000000      0.00000000</v>
  </separator>
  <dos>
   <i name="efermi">     -2.75522524 </i>
   <total>
    <array>
     <dimension dim="1">gridpoints</dimension>
     <dimension dim="2">spin</dimension>
     <field>energy</field>
     <field>total</field>
     <field>integrated</field>
     <set>
      <set comment="spin 1">
       <r>   -23.5113     0.0000     0.0000 </r>
       <r>   -23.4192     0.0000     0.0000 </r>
       <r>   -23.3272     0.0000     0.0000 </r>
       <r>   -23.2351     0.0000     0.0000 </r>
       <r>   -23.1430     0.0000     0.0000 </r>
       <r>   -23.0510     0.0000     0.0000 </r>
       <r>   -22.9589     0.0000     0.0000 </r>
       <r>   -22.8669     0.0000     0.0000 </r>
       <r>   -22.7748     0.0000     0.0000 </r>
       <r>   -22.6827     0.0000     0.0000 </r>
       <r>   -22.5907     0.0000     0.0000 </r>
       <r>   -22.4986     0.0000     0.0000 </r>
       <r>   -22.4066     0.0000     0.0000 </r>
       <r>   -22.3145     0.0236     0.0022 </r>
       <r>   -22.2224     1.1017     0.1036 </r>
       <r>   -22.1304     2.3658     0.3214 </r>
       <r>   -22.0383     3.5653     0.6496 </r>
       <r>   -21.9463     1.5380     0.7912 </r>
       <r>   -21.8542     4.0183     1.1611 </r>
       <r>   -21.7622     2.8376     1.4223 </r>
       <r>   -21.6701     1.1184     1.5253 </r>
       <r>   -21.5780     3.8485     1.8796 </r>
       <r>   -21.4860     3.9051     2.2391 </r>
       <r>   -21.3939     1.6537     2.3913 </r>
       <r>   -21.3019     1.3372     2.5144 </r>
       <r>   -21.2098     4.2553     2.9062 </r>
       <r>   -21.1177     4.6049     3.3301 </r>
       <r>   -21.0257     1.5160     3.4696 </r>
       <r>   -20.9336     1.1211     3.5729 </r>
       <r>   -20.8416     2.3766     3.7916 </r>
       <r>   -20.7495     5.5247     4.3002 </r>
       <r>   -20.6574     2.1243     4.4958 </r>
       <r>   -20.5654     4.2776     4.8896 </r>
       <r>   -20.4733     0.5345     4.9388 </r>
       <r>   -20.3813     0.5328     4.9879 </r>
       <r>   -20.2892     5.1600     5.4629 </r>
       <r>   -20.1972     4.6708     5.8929 </r>
       <r>   -20.1051     2.9009     6.1599 </r>
       <r>   -20.0130     1.1576     6.2665 </r>
       <r>   -19.9210     3.9939     6.6342 </r>
       <r>   -19.8289     0.2102     6.6535 </r>
       <r>   -19.7369     1.3376     6.7767 </r>
       <r>   -19.6448     7.6100     7.4772 </r>
       <r>   -19.5527     2.6246     7.7188 </r>
       <r>   -19.4607     4.1123     8.0974 </r>
       <r>   -19.3686     0.2799     8.1232 </r>
       <r>   -19.2766     1.8357     8.2922 </r>
       <r>   -19.1845     3.3996     8.6051 </r>
       <r>   -19.0924     1.0581     8.7025 </r>
       <r>   -19.0004     4.7076     9.1359 </r>
       <r>   -18.9083     5.7878     9.6687 </r>
       <r>   -18.8163     2.0464     9.8571 </r>
       <r>   -18.7242     4.0744    10.2322 </r>
       <r>   -18.6322     1.0230    10.3264 </r>
       <r>   -18.5401     0.0466    10.3307 </r>
       <r>   -18.4480     3.0322    10.6098 </r>
       <r>   -18.3560     3.9880    10.9770 </r>
       <r>   -18.2639     5.5894    11.4915 </r>
       <r>   -18.1719     2.5230    11.7238 </r>
       <r>   -18.0798     4.2096    12.1113 </r>
       <r>   -17.9877     1.9689    12.2926 </r>
       <r>   -17.8957     3.7803    12.6406 </r>
       <r>   -17.8036     1.4621    12.7752 </r>
       <r>   -17.7116     0.0064    12.7758 </r>
       <r>   -17.6195     1.7545    12.9373 </r>
       <r>   -17.5274     8.6964    13.7379 </r>
       <r>   -17.4354     4.9771    14.1961 </r>
       <r>   -17.3433     1.3864    14.3237 </r>
       <r>   -17.2513     4.8451    14.7697 </r>
       <r>   -17.1592     2.3446    14.9856 </r>
       <r>   -17.0672     3.8452    15.3395 </r>
       <r>   -16.9751     3.0829    15.6233 </r>
       <r>   -16.8830     0.9878    15.7143 </r>
       <r>   -16.7910     1.5397    15.8560 </r>
       <r>   -16.6989     8.7274    16.6595 </r>
       <r>   -16.6069     5.5043    17.1662 </r>
       <r>   -16.5148     0.1900    17.1837 </r>
       <r>   -16.4227     0.0000    17.1837 </r>
       <r>   -16.3307     0.0000    17.1837 </r>
       <r>   -16.2386     0.0403    17.1874 </r>
       <r>   -16.1466     1.7288    17.3465 </r>
       <r>   -16.0545     1.1528    17.4527 </r>
       <r>   -15.9625     4.7874    17.8934 </r>
       <r>   -15.8704     2.8569    18.1564 </r>
       <r>   -15.7783     0.5611    18.2080 </r>
       <r>   -15.6863     3.2229    18.5047 </r>
       <r>   -15.5942     5.3509    18.9973 </r>
       <r>   -15.5022     1.5757    19.1424 </r>
       <r>   -15.4101     0.0595    19.1479 </r>
       <r>   -15.3180     1.6400    19.2988 </r>
       <r>   -15.2260     9.9471    20.2145 </r>
       <r>   -15.1339     3.4251    20.5299 </r>
       <r>   -15.0419     0.9928    20.6212 </r>
       <r>   -14.9498     4.8980    21.0722 </r>
       <r>   -14.8577     4.4392    21.4808 </r>
       <r>   -14.7657     1.2971    21.6002 </r>
       <r>   -14.6736     2.8252    21.8603 </r>
       <r>   -14.5816     8.5204    22.6447 </r>
       <r>   -14.4895     0.9772    22.7346 </r>
       <r>   -14.3975     0.0948    22.7434 </r>
       <r>   -14.3054     3.7503    23.0886 </r>
       <r>   -14.2133     4.1558    23.4712 </r>
       <r>   -14.1213     4.4821    23.8838 </r>
       <r>   -14.0292     0.8930    23.9660 </r>
       <r>   -13.9372     3.3813    24.2773 </r>
       <r>   -13.8451     1.8593    24.4485 </r>
       <r>   -13.7530     1.2557    24.5641 </r>
       <r>   -13.6610     4.0022    24.9325 </r>
       <r>   -13.5689     2.3093    25.1451 </r>
       <r>   -13.4769     4.3307    25.5438 </r>
       <r>   -13.3848     1.4198    25.6745 </r>
       <r>   -13.2927     2.4352    25.8987 </r>
       <r>   -13.2007     3.6921    26.2386 </r>
       <r>   -13.1086     0.0693    26.2449 </r>
       <r>   -13.0166     0.7980    26.3184 </r>
       <r>   -12.9245     9.4262    27.1862 </r>
       <r>   -12.8325     5.0482    27.6509 </r>
       <r>   -12.7404     3.2867    27.9535 </r>
       <r>   -12.6483     0.3580    27.9864 </r>
       <r>   -12.5563     2.1343    28.1829 </r>
       <r>   -12.4642     0.2551    28.2064 </r>
       <r>   -12.3722     1.5780    28.3517 </r>
       <r>   -12.2801     7.9366    29.0823 </r>
       <r>   -12.1880     8.7035    29.8835 </r>
       <r>   -12.0960     3.0010    30.1598 </r>
       <r>   -12.0039     0.0464    30.1641 </r>
       <r>   -11.9119     1.8936    30.3384 </r>
       <r>   -11.8198     3.3961    30.6510 </r>
       <r>   -11.7277     3.6650    30.9884 </r>
       <r>   -11.6357     6.4804    31.5850 </r>
       <r>   -11.5436     0.5175    31.6326 </r>
       <r>   -11.4516     0.2276    31.6536 </r>
       <r>   -11.3595     6.4727    32.2495 </r>
       <r>   -11.2675     6.0530    32.8067 </r>
       <r>   -11.1754     3.3789    33.1177 </r>
       <r>   -11.0833     5.5596    33.6295 </r>
       <r>   -10.9913     4.7020    34.0624 </r>
       <r>   -10.8992     2.8327    34.3232 </r>
       <r>   -10.8072     0.0364    34.3265 </r>
       <r>   -10.7151     0.0032    34.3268 </r>
       <r>   -10.6230     1.4872    34.4637 </r>
       <r>   -10.5310    11.0051    35.4769 </r>
       <r>   -10.4389    10.6881    36.4608 </r>
       <r>   -10.3469     2.8214    36.7205 </r>
       <r>   -10.2548     5.9393    37.2673 </r>
       <r>   -10.1627     2.0518    37.4562 </r>
       <r>   -10.0707     4.2767    37.8499 </r>
       <r>    -9.9786     4.9755    38.3079 </r>
       <r>    -9.8866    10.8126    39.3033 </r>
       <r>    -9.7945    10.0177    40.2255 </r>
       <r>    -9.7025     6.2148    40.7976 </r>
       <r>    -9.6104     8.8037    41.6081 </r>
       <r>    -9.5183     8.8243    42.4205 </r>
       <r>    -9.4263     5.5270    42.9293 </r>
       <r>    -9.3342     3.7724    43.2765 </r>
       <r>    -9.2422    10.3885    44.2329 </r>
       <r>    -9.1501    11.9490    45.3329 </r>
       <r>    -9.0580    14.9078    46.7053 </r>
       <r>    -8.9660     6.8092    47.3322 </r>
       <r>    -8.8739     3.0145    47.6097 </r>
       <r>    -8.7819    12.4900    48.7595 </r>
       <r>    -8.6898     6.8374    49.3889 </r>
       <r>    -8.5977     7.4201    50.0720 </r>
       <r>    -8.5057     7.0739    50.7232 </r>
       <r>    -8.4136     8.0665    51.4658 </r>
       <r>    -8.3216     3.3426    51.7735 </r>
       <r>    -8.2295     4.0356    52.1450 </r>
       <r>    -8.1375     5.5137    52.6526 </r>
       <r>    -8.0454    13.8316    53.9259 </r>
       <r>    -7.9533     5.2395    54.4083 </r>
       <r>    -7.8613     4.9809    54.8668 </r>
       <r>    -7.7692     1.1714    54.9746 </r>
       <r>    -7.6772     8.4147    55.7493 </r>
       <r>    -7.5851     7.0172    56.3953 </r>
       <r>    -7.4930     5.1572    56.8700 </r>
       <r>    -7.4010     2.9196    57.1388 </r>
       <r>    -7.3089     7.3634    57.8167 </r>
       <r>    -7.2169     2.2595    58.0247 </r>
       <r>    -7.1248    10.0299    58.9480 </r>
       <r>    -7.0327     7.8400    59.6698 </r>
       <r>    -6.9407     3.4409    59.9865 </r>
       <r>    -6.8486     3.5923    60.3172 </r>
       <r>    -6.7566     0.1432    60.3304 </r>
       <r>    -6.6645     4.3064    60.7269 </r>
       <r>    -6.5725    10.5531    61.6984 </r>
       <r>    -6.4804     8.8416    62.5123 </r>
       <r>    -6.3883     4.1158    62.8912 </r>
       <r>    -6.2963     4.0377    63.2629 </r>
       <r>    -6.2042     1.7779    63.4266 </r>
       <r>    -6.1122     4.9499    63.8823 </r>
       <r>    -6.0201     4.8167    64.3257 </r>
       <r>    -5.9280     2.8554    64.5886 </r>
       <r>    -5.8360     7.9394    65.3195 </r>
       <r>    -5.7439     7.1453    65.9772 </r>
       <r>    -5.6519     3.4558    66.2954 </r>
       <r>    -5.5598     3.7804    66.6434 </r>
       <r>    -5.4677     1.4872    66.7803 </r>
       <r>    -5.3757     3.1882    67.0738 </r>
       <r>    -5.2836     2.0913    67.2663 </r>
       <r>    -5.1916     1.5216    67.4064 </r>
       <r>    -5.0995     3.2307    67.7038 </r>
       <r>    -5.0075    15.6212    69.1419 </r>
       <r>    -4.9154     6.1648    69.7094 </r>
       <r>    -4.8233     0.0530    69.7143 </r>
       <r>    -4.7313     0.1364    69.7268 </r>
       <r>    -4.6392     2.0630    69.9168 </r>
       <r>    -4.5472     0.4638    69.9595 </r>
       <r>    -4.4551     1.4132    70.0896 </r>
       <r>    -4.3630     3.9659    70.4547 </r>
       <r>    -4.2710     5.0511    70.9196 </r>
       <r>    -4.1789     2.8311    71.1803 </r>
       <r>    -4.0869     0.0370    71.1837 </r>
       <r>    -3.9948     0.0100    71.1846 </r>
       <r>    -3.9027     1.2202    71.2969 </r>
       <r>    -3.8107     1.4124    71.4270 </r>
       <r>    -3.7186     0.0176    71.4286 </r>
       <r>    -3.6266     0.0137    71.4298 </r>
       <r>    -3.5345     2.1846    71.6309 </r>
       <r>    -3.4425     3.0732    71.9139 </r>
       <r>    -3.3504     0.0490    71.9184 </r>
       <r>    -3.2583     0.0000    71.9184 </r>
       <r>    -3.1663     0.0000    71.9184 </r>
       <r>    -3.0742     0.0000    71.9184 </r>
       <r>    -2.9822     0.0000    71.9184 </r>
       <r>    -2.8901     0.0002    71.9184 </r>
       <r>    -2.7980     0.2191    71.9386 </r>
       <r>    -2.7060     1.3931    72.0668 </r>
       <r>    -2.6139     0.1609    72.0816 </r>
       <r>    -2.5219     0.0001    72.0816 </r>
       <r>    -2.4298     0.0000    72.0816 </r>
       <r>    -2.3377     0.0000    72.0816 </r>
       <r>    -2.2457     0.0000    72.0816 </r>
       <r>    -2.1536     0.0001    72.0816 </r>
       <r>    -2.0616     0.2975    72.1090 </r>
       <r>    -1.9695     4.1524    72.4913 </r>
       <r>    -1.8775     0.8695    72.5713 </r>
       <r>    -1.7854     0.0519    72.5761 </r>
       <r>    -1.6933     1.7641    72.7385 </r>
       <r>    -1.6013     0.8420    72.8160 </r>
       <r>    -1.5092     0.0032    72.8163 </r>
       <r>    -1.4172     0.0029    72.8166 </r>
       <r>    -1.3251     1.9155    72.9929 </r>
       <r>    -1.2330    11.4246    74.0447 </r>
       <r>    -1.1410     2.8100    74.3033 </r>
       <r>    -1.0489     3.5007    74.6256 </r>
       <r>    -0.9569     5.8291    75.1622 </r>
       <r>    -0.8648     1.7857    75.3266 </r>
       <r>    -0.7727     4.2578    75.7186 </r>
       <r>    -0.6807     3.3514    76.0271 </r>
       <r>    -0.5886     4.7810    76.4673 </r>
       <r>    -0.4966     2.9895    76.7425 </r>
       <r>    -0.4045     3.7491    77.0876 </r>
       <r>    -0.3125     3.3500    77.3960 </r>
       <r>    -0.2204     5.2010    77.8748 </r>
       <r>    -0.1283     0.9136    77.9589 </r>
       <r>    -0.0363     0.0034    77.9592 </r>
       <r>     0.0558     0.5324    78.0082 </r>
       <r>     0.1478     4.2505    78.3995 </r>
       <r>     0.2399     1.4968    78.5373 </r>
       <r>     0.3320     4.1649    78.9207 </r>
       <r>     0.4240     3.6352    79.2554 </r>
       <r>     0.5161     3.0954    79.5403 </r>
       <r>     0.6081     3.6477    79.8761 </r>
       <r>     0.7002     1.3291    79.9985 </r>
       <r>     0.7923     5.8387    80.5360 </r>
       <r>     0.8843     5.9081    81.0799 </r>
       <r>     0.9764     1.5011    81.2181 </r>
       <r>     1.0684     4.2721    81.6114 </r>
       <r>     1.1605     1.8159    81.7785 </r>
       <r>     1.2525     5.6849    82.3019 </r>
       <r>     1.3446     2.0928    82.4945 </r>
       <r>     1.4367     6.8884    83.1287 </r>
       <r>     1.5287    14.0779    84.4247 </r>
       <r>     1.6208     4.4811    84.8372 </r>
       <r>     1.7128     4.6421    85.2645 </r>
       <r>     1.8049     3.3586    85.5737 </r>
       <r>     1.8970     8.7771    86.3817 </r>
       <r>     1.9890     8.9072    87.2017 </r>
       <r>     2.0811     9.2433    88.0527 </r>
       <r>     2.1731     6.8368    88.6820 </r>
       <r>     2.2652     6.9635    89.3231 </r>
       <r>     2.3573     7.4183    90.0060 </r>
       <r>     2.4493     5.6890    90.5297 </r>
       <r>     2.5414     3.4129    90.8439 </r>
       <r>     2.6334     2.9932    91.1195 </r>
       <r>     2.7255     2.3171    91.3328 </r>
       <r>     2.8175     4.5997    91.7562 </r>
       <r>     2.9096     2.5180    91.9880 </r>
       <r>     3.0017     0.1299    92.0000 </r>
       <r>     3.0937     0.0000    92.0000 </r>
       <r>     3.1858     0.0000    92.0000 </r>
       <r>     3.2778     0.0000    92.0000 </r>
       <r>     3.3699     0.0000    92.0000 </r>
       <r>     3.4620     0.0000    92.0000 </r>
       <r>     3.5540     0.0000    92.0000 </r>
       <r>     3.6461     0.0000    92.0000 </r>
       <r>     3.7381     0.0000    92.0000 </r>
       <r>     3.8302     0.0000    92.0000 </r>
       <r>     3.9223     0.0000    92.0000 </r>
       <r>     4.0143     0.0000    92.0000 </r>
       <r>     4.1064     0.0000    92.0000 </r>
      </set>
     </set>
    </array>
   </total>
  </dos>
 </calculation>
 <structure name="finalpos" >
  <crystal>
   <varray name="basis" >
    <v>       7.40170591       0.00000000       0.00000000 </v>
    <v>      -3.70085295       6.41006527       0.00000000 </v>
    <v>       0.00000000       0.00000000      20.00000000 </v>
   </varray>
   <i name="volume">    948.90835877 </i>
   <varray name="rec_basis" >
    <v>       0.13510399       0.07800233       0.00000000 </v>
    <v>       0.00000000       0.15600465       0.00000000 </v>
    <v>       0.00000000       0.00000000       0.05000000 </v>
   </varray>
  </crystal>
  <varray name="positions" >
   <v>       0.99921998       0.99843995       0.50050000 </v>
   <v>       0.33333333       0.00000000       0.50000000 </v>
   <v>       0.66666667       0.00000000       0.50000000 </v>
   <v>       0.00000000       0.33333333       0.50000000 </v>
   <v>       0.33333333       0.33333333       0.50000000 </v>
   <v>       0.66666667       0.33333333       0.50000000 </v>
   <v>       0.00000000       0.66666667       0.50000000 </v>
   <v>       0.33333333       0.66666667       0.50000000 </v>
   <v>       0.66666667       0.66666667       0.50000000 </v>
   <v>       0.22222222       0.11111111       0.50000000 </v>
   <v>       0.55555556       0.11111111       0.50000000 </v>
   <v>       0.88888889       0.11111111       0.50000000 </v>
   <v>       0.22222222       0.44444444       0.50000000 </v>
   <v>       0.55555556       0.44444444       0.50000000 </v>
   <v>       0.88888889       0.44444444       0.50000000 </v>
   <v>       0.22222222       0.77777778       0.50000000 </v>
   <v>       0.55555556       0.77777778       0.50000000 </v>
   <v>       0.88888889       0.77777778       0.50000000 </v>
  </varray>
 </structure>
</modeling>
