<?xml version="1.0" encoding="ISO-8859-1"?>
<modeling>
 <generator>
  <i name="program" type="string">vasp </i>
  <i name="version" type="string">6.4.1  </i>
  <i name="subversion" type="string">05Apr23 (build Feb 12 2025 00:37:39) complex                          parallel </i>
  <i name="platform" type="string">LinuxIFC </i>
  <i name="date" type="string">2025 02 14 </i>
  <i name="time" type="string">05:36:25 </i>
 </generator>
 <incar>
  <i type="string" name="SYSTEM">SCF</i>
  <i type="int" name="ISTART">     0</i>
  <i type="int" name="ICHARG">     2</i>
  <i type="int" name="NELM">    60</i>
  <i type="int" name="NELMIN">     6</i>
  <i name="EDIFF">      0.00000100</i>
  <i name="EDIFFG">     -0.00000100</i>
  <i name="ENCUT">    600.00000000</i>
  <i type="string" name="LREAL">Auto</i>
  <i type="int" name="ISMEAR">     0</i>
  <i name="SIGMA">      0.05000000</i>
  <i type="logical" name="LWAVE"> F  </i>
  <i type="logical" name="LCHARG"> F  </i>
 </incar>
 <primitive_cell>
  <structure name="primitive_cell" >
   <crystal>
    <varray name="basis" >
     <v>       7.40170591       0.00000000       0.00000000 </v>
     <v>      -3.70085295       6.41006527       0.00000000 </v>
     <v>       0.00000000       0.00000000      20.00000000 </v>
    </varray>
    <i name="volume">    948.90835877 </i>
    <varray name="rec_basis" >
     <v>       0.13510399       0.07800233       0.00000000 </v>
     <v>       0.00000000       0.15600465       0.00000000 </v>
     <v>       0.00000000       0.00000000       0.05000000 </v>
    </varray>
   </crystal>
   <varray name="positions" >
    <v>       0.99843995       0.99687991       0.50000000 </v>
    <v>       0.33333333       0.00000000       0.50000000 </v>
    <v>       0.66666667       0.00000000       0.50000000 </v>
    <v>       1.00000000       0.33333333       0.50000000 </v>
    <v>       0.33333333       0.33333333       0.50000000 </v>
    <v>       0.66666667       0.33333333       0.50000000 </v>
    <v>       1.00000000       0.66666667       0.50000000 </v>
    <v>       0.33333333       0.66666667       0.50000000 </v>
    <v>       0.66666667       0.66666667       0.50000000 </v>
    <v>       0.22222222       0.11111111       0.50000000 </v>
    <v>       0.55555556       0.11111111       0.50000000 </v>
    <v>       0.88888889       0.11111111       0.50000000 </v>
    <v>       0.22222222       0.44444444       0.50000000 </v>
    <v>       0.55555556       0.44444444       0.50000000 </v>
    <v>       0.88888889       0.44444444       0.50000000 </v>
    <v>       0.22222222       0.77777778       0.50000000 </v>
    <v>       0.55555556       0.77777778       0.50000000 </v>
    <v>       0.88888889       0.77777778       0.50000000 </v>
   </varray>
  </structure>
  <varray name="primitive_index" >
   <v type="int" >        1 </v>
   <v type="int" >        2 </v>
   <v type="int" >        3 </v>
   <v type="int" >        4 </v>
   <v type="int" >        5 </v>
   <v type="int" >        6 </v>
   <v type="int" >        7 </v>
   <v type="int" >        8 </v>
   <v type="int" >        9 </v>
   <v type="int" >       10 </v>
   <v type="int" >       11 </v>
   <v type="int" >       12 </v>
   <v type="int" >       13 </v>
   <v type="int" >       14 </v>
   <v type="int" >       15 </v>
   <v type="int" >       16 </v>
   <v type="int" >       17 </v>
   <v type="int" >       18 </v>
  </varray>
 </primitive_cell>
 <kpoints>
  <generation param="Gamma">
   <v type="int" name="divisions">       7        7        1 </v>
   <v name="usershift">      0.00000000       0.00000000       0.00000000 </v>
   <v name="genvec1">      0.14285714       0.00000000       0.00000000 </v>
   <v name="genvec2">      0.00000000       0.14285714       0.00000000 </v>
   <v name="genvec3">      0.00000000       0.00000000       1.00000000 </v>
   <v name="shift">      0.00000000       0.00000000       0.00000000 </v>
  </generation>
  <varray name="kpointlist" >
   <v>       0.00000000       0.00000000       0.00000000 </v>
   <v>       0.14285714       0.00000000       0.00000000 </v>
   <v>       0.00000000       0.14285714       0.00000000 </v>
   <v>       0.28571429       0.00000000       0.00000000 </v>
   <v>       0.00000000       0.28571429       0.00000000 </v>
   <v>       0.42857143       0.00000000       0.00000000 </v>
   <v>       0.00000000       0.42857143       0.00000000 </v>
   <v>       0.14285714       0.14285714       0.00000000 </v>
   <v>      -0.28571429       0.14285714       0.00000000 </v>
   <v>       0.28571429       0.14285714       0.00000000 </v>
   <v>      -0.14285714       0.42857143       0.00000000 </v>
   <v>      -0.42857143       0.28571429       0.00000000 </v>
   <v>       0.42857143       0.14285714       0.00000000 </v>
   <v>      -0.14285714      -0.42857143       0.00000000 </v>
   <v>       0.28571429       0.28571429       0.00000000 </v>
   <v>       0.42857143       0.28571429       0.00000000 </v>
  </varray>
  <varray name="weights" >
   <v>       0.02040816 </v>
   <v>       0.08163265 </v>
   <v>       0.04081633 </v>
   <v>       0.08163265 </v>
   <v>       0.04081633 </v>
   <v>       0.08163265 </v>
   <v>       0.04081633 </v>
   <v>       0.08163265 </v>
   <v>       0.04081633 </v>
   <v>       0.08163265 </v>
   <v>       0.08163265 </v>
   <v>       0.08163265 </v>
   <v>       0.08163265 </v>
   <v>       0.04081633 </v>
   <v>       0.08163265 </v>
   <v>       0.04081633 </v>
  </varray>
 </kpoints>
 <parameters>
  <separator name="general" >
   <i type="string" name="SYSTEM">SCF</i>
   <i type="logical" name="LCOMPAT"> F  </i>
  </separator>
  <separator name="electronic" >
   <i type="string" name="PREC">normal</i>
   <i name="ENMAX">    600.00000000</i>
   <i name="ENAUG">    644.87300000</i>
   <i name="EDIFF">      0.00000100</i>
   <i type="int" name="IALGO">    38</i>
   <i type="int" name="IWAVPR">    10</i>
   <i type="int" name="NBANDS">    46</i>
   <i type="int" name="NBANDSLOW">    -1</i>
   <i type="int" name="NBANDSHIGH">    -1</i>
   <i name="NELECT">     72.00000000</i>
   <i type="int" name="TURBO">     0</i>
   <i type="int" name="IRESTART">     0</i>
   <i type="int" name="NREBOOT">     0</i>
   <i type="int" name="NMIN">     0</i>
   <i name="EREF">      0.00000000</i>
   <separator name="electronic smearing" >
    <i type="int" name="ISMEAR">     0</i>
    <i name="SIGMA">      0.05000000</i>
    <i name="KSPACING">      0.50000000</i>
    <i type="logical" name="KGAMMA"> T  </i>
    <i type="logical" name="KBLOWUP"> T  </i>
   </separator>
   <separator name="electronic projectors" >
    <i type="logical" name="LREAL"> T  </i>
    <v name="ROPT">     -0.00050000</v>
    <i type="int" name="LMAXPAW">  -100</i>
    <i type="int" name="LMAXMIX">     2</i>
    <i type="logical" name="NLSPLINE"> F  </i>
   </separator>
   <separator name="electronic startup" >
    <i type="int" name="ISTART">     0</i>
    <i type="int" name="ICHARG">     2</i>
    <i type="int" name="INIWAV">     1</i>
   </separator>
   <separator name="electronic spin" >
    <i type="int" name="ISPIN">     1</i>
    <i type="logical" name="LNONCOLLINEAR"> F  </i>
    <v name="MAGMOM">      1.00000000      1.00000000      1.00000000      1.00000000      1.00000000      1.00000000      1.00000000      1.00000000      1.00000000      1.00000000      1.00000000      1.00000000      1.00000000      1.00000000      1.00000000      1.00000000      1.00000000      1.00000000</v>
    <i name="NUPDOWN">     -1.00000000</i>
    <i type="logical" name="LSORBIT"> F  </i>
    <v name="SAXIS">      0.00000000      0.00000000      1.00000000</v>
    <i type="logical" name="LSPIRAL"> F  </i>
    <v name="QSPIRAL">      0.00000000      0.00000000      0.00000000</v>
    <i type="logical" name="LZEROZ"> F  </i>
   </separator>
   <separator name="electronic exchange-correlation" >
    <i type="logical" name="LASPH"> F  </i>
    <i type="logical" name="LMETAGGA"> F  </i>
   </separator>
   <separator name="electronic convergence" >
    <i type="int" name="NELM">    60</i>
    <i type="int" name="NELMDL">    -5</i>
    <i type="int" name="NELMIN">     6</i>
    <i name="ENINI">    600.00000000</i>
    <separator name="electronic convergence detail" >
     <i type="logical" name="LDIAG"> T  </i>
     <i type="logical" name="LSUBROT"> F  </i>
     <i name="WEIMIN">      0.00000000</i>
     <i name="EBREAK">      0.00000000</i>
     <i name="DEPER">      0.30000000</i>
     <i type="int" name="NRMM">     4</i>
     <i name="TIME">      0.40000000</i>
    </separator>
   </separator>
   <separator name="electronic mixer" >
    <i name="AMIX">      0.40000000</i>
    <i name="BMIX">      1.00000000</i>
    <i name="AMIN">      0.10000000</i>
    <i name="AMIX_MAG">      1.60000000</i>
    <i name="BMIX_MAG">      1.00000000</i>
    <separator name="electronic mixer details" >
     <i type="int" name="IMIX">     4</i>
     <i type="logical" name="MIXFIRST"> F  </i>
     <i type="int" name="MAXMIX">   -45</i>
     <i name="WC">    100.00000000</i>
     <i type="int" name="INIMIX">     1</i>
     <i type="int" name="MIXPRE">     1</i>
     <i type="int" name="MREMOVE">     5</i>
    </separator>
   </separator>
   <separator name="electronic dipolcorrection" >
    <i type="logical" name="LDIPOL"> F  </i>
    <i type="logical" name="LMONO"> F  </i>
    <i type="int" name="IDIPOL">     0</i>
    <i name="EPSILON">      1.00000000</i>
    <v name="DIPOL">   -100.00000000   -100.00000000   -100.00000000</v>
    <i name="EFIELD">      0.00000000</i>
   </separator>
  </separator>
  <separator name="grids" >
   <i type="int" name="NGX">    48</i>
   <i type="int" name="NGY">    48</i>
   <i type="int" name="NGZ">   120</i>
   <i type="int" name="NGXF">    96</i>
   <i type="int" name="NGYF">    96</i>
   <i type="int" name="NGZF">   240</i>
   <i type="logical" name="ADDGRID"> F  </i>
  </separator>
  <separator name="ionic" >
   <i type="int" name="NSW">     0</i>
   <i type="int" name="IBRION">    -1</i>
   <i type="int" name="MDALGO">     0</i>
   <i type="int" name="ISIF">     2</i>
   <i name="PSTRESS">      0.00000000</i>
   <i name="EDIFFG">     -0.00000100</i>
   <i type="int" name="NFREE">     0</i>
   <i name="POTIM">      0.50000000</i>
   <i name="SMASS">     -3.00000000</i>
   <i name="SCALEE">      1.00000000</i>
  </separator>
  <separator name="ionic md" >
   <i name="TEBEG">      0.00010000</i>
   <i name="TEEND">      0.00010000</i>
   <i type="int" name="NBLOCK">     1</i>
   <i type="int" name="KBLOCK">     1</i>
   <i type="int" name="NPACO">   256</i>
   <i name="APACO">     10.00000000</i>
  </separator>
  <separator name="symmetry" >
   <i type="int" name="ISYM">     2</i>
   <i name="SYMPREC">      0.00001000</i>
  </separator>
  <separator name="dos" >
   <i type="int" name="LORBIT">     0</i>
   <v name="RWIGS">     -1.00000000</v>
   <i type="int" name="NEDOS">   301</i>
   <i name="EMIN">     10.00000000</i>
   <i name="EMAX">    -10.00000000</i>
   <i name="EFERMI">      0.00000000</i>
  </separator>
  <separator name="writing" >
   <i type="int" name="NWRITE">     2</i>
   <i type="logical" name="LWAVE"> F  </i>
   <i type="logical" name="LDOWNSAMPLE"> F  </i>
   <i type="logical" name="LCHARG"> F  </i>
   <i type="logical" name="LPARD"> F  </i>
   <i type="logical" name="LVTOT"> F  </i>
   <i type="logical" name="LVHAR"> F  </i>
   <i type="logical" name="LELF"> F  </i>
   <i type="logical" name="LOPTICS"> F  </i>
   <v name="STM">      0.00000000      0.00000000      0.00000000      0.00000000      0.00000000      0.00000000      0.00000000</v>
  </separator>
  <separator name="performance" >
   <i type="int" name="NPAR">     2</i>
   <i type="int" name="NSIM">     4</i>
   <i type="int" name="NBLK">    -1</i>
   <i type="logical" name="LPLANE"> T  </i>
   <i type="logical" name="LSCALAPACK"> T  </i>
   <i type="logical" name="LSCAAWARE"> F  </i>
   <i type="logical" name="LSCALU"> F  </i>
   <i type="logical" name="LASYNC"> F  </i>
   <i type="logical" name="LORBITALREAL"> F  </i>
  </separator>
  <separator name="miscellaneous" >
   <i type="int" name="IDIOT">     3</i>
   <i type="int" name="PHON_NSTRUCT">    -1</i>
   <i type="logical" name="LMUSIC"> F  </i>
   <v name="POMASS">     12.01100000</v>
   <v name="DARWINR">      0.00000000</v>
   <v name="DARWINV">      1.00000000</v>
   <i type="logical" name="LCORR"> T  </i>
  </separator>
  <i type="logical" name="GGA_COMPAT"> T  </i>
  <i type="logical" name="LBERRY"> F  </i>
  <i type="int" name="ICORELEVEL">     0</i>
  <i type="logical" name="LDAU"> F  </i>
  <i type="int" name="I_CONSTRAINED_M">     0</i>
  <separator name="electronic exchange-correlation" >
   <i type="string" name="GGA">--</i>
   <i type="int" name="VOSKOWN">     0</i>
   <i type="logical" name="LHFCALC"> F  </i>
   <i type="string" name="PRECFOCK"></i>
   <i type="logical" name="LSYMGRAD"> F  </i>
   <i type="logical" name="LHFONE"> F  </i>
   <i type="logical" name="LRHFCALC"> F  </i>
   <i type="logical" name="LTHOMAS"> F  </i>
   <i type="logical" name="LMODELHF"> F  </i>
   <i type="logical" name="LFOCKACE"> F  </i>
   <i name="ENCUT4O">     -1.00000000</i>
   <i type="int" name="EXXOEP">     0</i>
   <i type="int" name="FOURORBIT">     0</i>
   <i name="AEXX">      0.00000000</i>
   <i name="HFALPHA">      0.00000000</i>
   <i name="MCALPHA">      0.00000000</i>
   <i name="ALDAX">      1.00000000</i>
   <i name="AGGAX">      1.00000000</i>
   <i name="ALDAC">      1.00000000</i>
   <i name="AGGAC">      1.00000000</i>
   <i type="int" name="NKREDX">     1</i>
   <i type="int" name="NKREDY">     1</i>
   <i type="int" name="NKREDZ">     1</i>
   <i type="logical" name="SHIFTRED"> F  </i>
   <i type="logical" name="ODDONLY"> F  </i>
   <i type="logical" name="EVENONLY"> F  </i>
   <i type="int" name="LMAXFOCK">     0</i>
   <i type="int" name="NMAXFOCKAE">     0</i>
   <i type="logical" name="LFOCKAEDFT"> F  </i>
   <i name="HFSCREEN">      0.00000000</i>
   <i name="HFSCREENC">      0.00000000</i>
   <i type="int" name="NBANDSGWLOW">     0</i>
  </separator>
  <separator name="vdW DFT" >
   <i type="logical" name="LUSE_VDW"> F  </i>
   <i type="int" name="IVDW_NL">     1</i>
   <i type="logical" name="LSPIN_VDW"> F  </i>
   <i name="Zab_VDW">     -0.84910000</i>
   <i name="PARAM1">      0.12340000</i>
   <i name="PARAM2">      1.00000000</i>
   <i name="PARAM3">      0.00000000</i>
  </separator>
  <separator name="model GW" >
   <i type="int" name="MODEL_GW">     0</i>
   <i name="MODEL_EPS0">     31.63027863</i>
   <i name="MODEL_ALPHA">      1.00000000</i>
  </separator>
  <separator name="linear response parameters" >
   <i type="logical" name="LEPSILON"> F  </i>
   <i type="logical" name="LRPA"> F  </i>
   <i type="logical" name="LNABLA"> F  </i>
   <i type="logical" name="LVEL"> F  </i>
   <i name="CSHIFT">      0.10000000</i>
   <i name="OMEGAMAX">     -1.00000000</i>
   <i name="DEG_THRESHOLD">      0.00200000</i>
   <i name="RTIME">     -0.10000000</i>
   <i name="WPLASMAI">      0.00000000</i>
   <v name="DFIELD">      0.00000000      0.00000000      0.00000000</v>
   <v name="WPLASMA">      0.00000000      0.00000000      0.00000000      0.00000000      0.00000000      0.00000000      0.00000000      0.00000000      0.00000000</v>
  </separator>
  <separator name="orbital magnetization" >
   <i type="logical" name="NUCIND"> F  </i>
   <v name="MAGPOS">      0.00000000      0.00000000      0.00000000</v>
   <i type="logical" name="LNICSALL"> T  </i>
   <i type="logical" name="ORBITALMAG"> F  </i>
   <i type="logical" name="LMAGBLOCH"> F  </i>
   <i type="logical" name="LCHIMAG"> F  </i>
   <i type="logical" name="LGAUGE"> T  </i>
   <i type="int" name="MAGATOM">     0</i>
   <v name="MAGDIPOL">      0.00000000      0.00000000      0.00000000</v>
   <v name="AVECCONST">      0.00000000      0.00000000      0.00000000</v>
  </separator>
  <separator name="response functions" >
   <i type="logical" name="LALL_IN_ONE"> F  </i>
   <i type="int" name="IALL_IN_ONE">    -1</i>
   <i type="int" name="NBANDS_WAVE">    -1</i>
   <i type="logical" name="LFINITE_TEMPERATURE"> F  </i>
   <i type="logical" name="LADDER"> F  </i>
   <i type="logical" name="LRPAFORCE"> F  </i>
   <i type="logical" name="LFXC"> F  </i>
   <i type="logical" name="LHARTREE"> T  </i>
   <i type="int" name="IBSE">     0</i>
   <v type="int" name="KPOINT">    -1     0     0     0</v>
   <i type="logical" name="LTCTC"> F  </i>
   <i type="logical" name="LTCTE"> F  </i>
   <i type="logical" name="LTETE"> F  </i>
   <i type="logical" name="LTRIPLET"> F  </i>
   <i type="logical" name="LFXCEPS"> F  </i>
   <i type="logical" name="LFXHEG"> F  </i>
   <i type="int" name="NATURALO">     2</i>
   <i type="logical" name="LHOLEGF"> F  </i>
   <i type="logical" name="L2ORDER"> F  </i>
   <i type="logical" name="LDMP1"> F  </i>
   <i type="logical" name="LMP2LT"> F  </i>
   <i type="logical" name="LSMP2LT"> F  </i>
   <i type="logical" name="LGWLF"> F  </i>
   <i name="ENCUTGW">     -1.60000002</i>
   <i name="ENCUTGWSOFT">     -1.60000002</i>
   <i name="ENCUTLF">     -1.00000000</i>
   <i type="logical" name="LESF_SPLINES"> F  </i>
   <i type="int" name="LMAXMP2">    -1</i>
   <i name="SCISSOR">      0.00000000</i>
   <i type="int" name="NOMEGA">     0</i>
   <i type="int" name="NOMEGAR">     0</i>
   <i type="int" name="NBANDSGW">    -1</i>
   <i type="int" name="NBANDSO">    -1</i>
   <i type="int" name="NBANDSV">    -1</i>
   <i type="int" name="NELMGW">     1</i>
   <i type="int" name="NELMHF">     1</i>
   <i type="int" name="DIM">     3</i>
   <i type="int" name="IESPILON">     4</i>
   <i type="int" name="ANTIRES">     0</i>
   <i name="OMEGAMAX">    -30.00000000</i>
   <i name="OMEGAMIN">    -30.00000000</i>
   <i name="OMEGATL">   -200.00000000</i>
   <i type="int" name="OMEGAGRID">     0</i>
   <i name="CSHIFT">     -0.10000000</i>
   <i type="logical" name="LSELFENERGY"> F  </i>
   <i type="logical" name="LSPECTRAL"> F  </i>
   <i type="logical" name="LSPECTRALGW"> F  </i>
   <i type="logical" name="LSINGLES"> F  </i>
   <i type="logical" name="LFERMIGW"> F  </i>
   <i type="logical" name="ODDONLYGW"> F  </i>
   <i type="logical" name="EVENONLYGW"> F  </i>
   <i type="int" name="NKREDLFX">     1</i>
   <i type="int" name="NKREDLFY">     1</i>
   <i type="int" name="NKREDLFZ">     1</i>
   <i type="int" name="MAXMEM">  2800</i>
   <i type="int" name="TELESCOPE">     0</i>
   <i type="int" name="NTAUPAR">    -1</i>
   <i type="int" name="NOMEGAPAR">    -1</i>
   <i name="DAMP_NEWTON">      0.80000001</i>
   <i name="LAMBDA">      1.00000000</i>
  </separator>
  <separator name="External order field" >
   <i name="OFIELD_KAPPA">      0.00000000</i>
   <v name="OFIELD_K">      0.00000000      0.00000000      0.00000000</v>
   <i name="OFIELD_Q6_NEAR">      0.00000000</i>
   <i name="OFIELD_Q6_FAR">      0.00000000</i>
   <i name="OFIELD_A">      0.00000000</i>
  </separator>
  <separator name="optional k-points parameters" >
   <i type="int" name="KPOINTS_OPT_MODE">     1</i>
   <i type="logical" name="LKPOINTS_OPT"> F  </i>
  </separator>
 </parameters>
 <atominfo>
  <atoms>      18 </atoms>
  <types>       1 </types>
  <array name="atoms" >
   <dimension dim="1">ion</dimension>
   <field type="string">element</field>
   <field type="int">atomtype</field>
   <set>
    <rc><c>C </c><c>   1</c></rc>
    <rc><c>C </c><c>   1</c></rc>
    <rc><c>C </c><c>   1</c></rc>
    <rc><c>C </c><c>   1</c></rc>
    <rc><c>C </c><c>   1</c></rc>
    <rc><c>C </c><c>   1</c></rc>
    <rc><c>C </c><c>   1</c></rc>
    <rc><c>C </c><c>   1</c></rc>
    <rc><c>C </c><c>   1</c></rc>
    <rc><c>C </c><c>   1</c></rc>
    <rc><c>C </c><c>   1</c></rc>
    <rc><c>C </c><c>   1</c></rc>
    <rc><c>C </c><c>   1</c></rc>
    <rc><c>C </c><c>   1</c></rc>
    <rc><c>C </c><c>   1</c></rc>
    <rc><c>C </c><c>   1</c></rc>
    <rc><c>C </c><c>   1</c></rc>
    <rc><c>C </c><c>   1</c></rc>
   </set>
  </array>
  <array name="atomtypes" >
   <dimension dim="1">type</dimension>
   <field type="int">atomspertype</field>
   <field type="string">element</field>
   <field>mass</field>
   <field>valence</field>
   <field type="string">pseudopotential</field>
   <set>
    <rc><c>  18</c><c>C </c><c>     12.01100000</c><c>      4.00000000</c><c>  PAW_PBE C 08Apr2002                   </c></rc>
   </set>
  </array>
 </atominfo>
 <structure name="initialpos" >
  <crystal>
   <varray name="basis" >
    <v>       7.40170591       0.00000000       0.00000000 </v>
    <v>      -3.70085295       6.41006527       0.00000000 </v>
    <v>       0.00000000       0.00000000      20.00000000 </v>
   </varray>
   <i name="volume">    948.90835877 </i>
   <varray name="rec_basis" >
    <v>       0.13510399       0.07800233       0.00000000 </v>
    <v>       0.00000000       0.15600465       0.00000000 </v>
    <v>       0.00000000       0.00000000       0.05000000 </v>
   </varray>
  </crystal>
  <varray name="positions" >
   <v>       0.99843995       0.99687991       0.50000000 </v>
   <v>       0.33333333       0.00000000       0.50000000 </v>
   <v>       0.66666667       0.00000000       0.50000000 </v>
   <v>       0.00000000       0.33333333       0.50000000 </v>
   <v>       0.33333333       0.33333333       0.50000000 </v>
   <v>       0.66666667       0.33333333       0.50000000 </v>
   <v>       0.00000000       0.66666667       0.50000000 </v>
   <v>       0.33333333       0.66666667       0.50000000 </v>
   <v>       0.66666667       0.66666667       0.50000000 </v>
   <v>       0.22222222       0.11111111       0.50000000 </v>
   <v>       0.55555556       0.11111111       0.50000000 </v>
   <v>       0.88888889       0.11111111       0.50000000 </v>
   <v>       0.22222222       0.44444444       0.50000000 </v>
   <v>       0.55555556       0.44444444       0.50000000 </v>
   <v>       0.88888889       0.44444444       0.50000000 </v>
   <v>       0.22222222       0.77777778       0.50000000 </v>
   <v>       0.55555556       0.77777778       0.50000000 </v>
   <v>       0.88888889       0.77777778       0.50000000 </v>
  </varray>
 </structure>
 <calculation>
  <scstep>
   <time name="dav">    3.78    3.94</time>
   <time name="total">    3.87    4.03</time>
   <energy>
    <i name="alphaZ">     28.04858418 </i>
    <i name="ewald">  11638.90357583 </i>
    <i name="hartreedc"> -13553.19288270 </i>
    <i name="XCdc">    237.17811383 </i>
    <i name="pawpsdc">   1953.39683484 </i>
    <i name="pawaedc">  -1963.64613940 </i>
    <i name="eentropy">     -0.01207746 </i>
    <i name="bandstr">   -254.94959274 </i>
    <i name="atom">   2648.70517965 </i>
    <i name="e_fr_energy">    734.43159603 </i>
    <i name="e_wo_entrp">    734.44367349 </i>
    <i name="e_0_energy">    734.43763476 </i>
   </energy>
  </scstep>
  <scstep>
   <time name="dav">    5.19    5.40</time>
   <time name="total">    5.19    5.40</time>
   <energy>
    <i name="e_fr_energy">    -24.95039982 </i>
    <i name="e_wo_entrp">    -24.95022359 </i>
    <i name="e_0_energy">    -24.95031171 </i>
   </energy>
  </scstep>
  <scstep>
   <time name="dav">    4.16    4.33</time>
   <time name="total">    4.16    4.33</time>
   <energy>
    <i name="e_fr_energy">   -172.38450405 </i>
    <i name="e_wo_entrp">   -172.38314112 </i>
    <i name="e_0_energy">   -172.38382258 </i>
   </energy>
  </scstep>
  <scstep>
   <time name="dav">    4.12    4.27</time>
   <time name="total">    4.12    4.27</time>
   <energy>
    <i name="e_fr_energy">   -177.34706118 </i>
    <i name="e_wo_entrp">   -177.34523222 </i>
    <i name="e_0_energy">   -177.34614670 </i>
   </energy>
  </scstep>
  <scstep>
   <time name="dav">    4.64    3.60</time>
   <time name="total">    4.81    3.79</time>
   <energy>
    <i name="e_fr_energy">   -177.47972094 </i>
    <i name="e_wo_entrp">   -177.47790805 </i>
    <i name="e_0_energy">   -177.47881449 </i>
   </energy>
  </scstep>
  <scstep>
   <time name="dav">    3.87    4.01</time>
   <time name="total">    4.12    4.28</time>
   <energy>
    <i name="e_fr_energy">   -169.31033666 </i>
    <i name="e_wo_entrp">   -169.30842607 </i>
    <i name="e_0_energy">   -169.30938136 </i>
   </energy>
  </scstep>
  <scstep>
   <time name="dav">    3.90    4.05</time>
   <time name="total">    4.16    4.32</time>
   <energy>
    <i name="e_fr_energy">   -166.14230544 </i>
    <i name="e_wo_entrp">   -166.14034573 </i>
    <i name="e_0_energy">   -166.14132558 </i>
   </energy>
  </scstep>
  <scstep>
   <time name="dav">    4.00    4.16</time>
   <time name="total">    4.28    4.44</time>
   <energy>
    <i name="e_fr_energy">   -166.07918370 </i>
    <i name="e_wo_entrp">   -166.07724446 </i>
    <i name="e_0_energy">   -166.07821408 </i>
   </energy>
  </scstep>
  <scstep>
   <time name="dav">    4.11    4.27</time>
   <time name="total">    4.37    4.54</time>
   <energy>
    <i name="e_fr_energy">   -166.06632458 </i>
    <i name="e_wo_entrp">   -166.06437889 </i>
    <i name="e_0_energy">   -166.06535173 </i>
   </energy>
  </scstep>
  <scstep>
   <time name="dav">    3.69    3.83</time>
   <time name="total">    3.95    4.10</time>
   <energy>
    <i name="e_fr_energy">   -166.04835508 </i>
    <i name="e_wo_entrp">   -166.04640438 </i>
    <i name="e_0_energy">   -166.04737973 </i>
   </energy>
  </scstep>
  <scstep>
   <time name="dav">    3.68    3.82</time>
   <time name="total">    3.94    4.09</time>
   <energy>
    <i name="e_fr_energy">   -166.05059326 </i>
    <i name="e_wo_entrp">   -166.04864541 </i>
    <i name="e_0_energy">   -166.04961933 </i>
   </energy>
  </scstep>
  <scstep>
   <time name="dav">    3.79    3.93</time>
   <time name="total">    4.04    4.20</time>
   <energy>
    <i name="e_fr_energy">   -166.05504038 </i>
    <i name="e_wo_entrp">   -166.05309378 </i>
    <i name="e_0_energy">   -166.05406708 </i>
   </energy>
  </scstep>
  <scstep>
   <time name="dav">    3.56    2.50</time>
   <time name="total">    3.82    2.78</time>
   <energy>
    <i name="e_fr_energy">   -166.05962464 </i>
    <i name="e_wo_entrp">   -166.05767712 </i>
    <i name="e_0_energy">   -166.05865088 </i>
   </energy>
  </scstep>
  <scstep>
   <time name="dav">    3.57    3.71</time>
   <time name="total">    3.83    3.98</time>
   <energy>
    <i name="e_fr_energy">   -166.06320669 </i>
    <i name="e_wo_entrp">   -166.06125898 </i>
    <i name="e_0_energy">   -166.06223283 </i>
   </energy>
  </scstep>
  <scstep>
   <time name="dav">    3.65    3.79</time>
   <time name="total">    3.91    4.06</time>
   <energy>
    <i name="e_fr_energy">   -166.06521623 </i>
    <i name="e_wo_entrp">   -166.06326816 </i>
    <i name="e_0_energy">   -166.06424219 </i>
   </energy>
  </scstep>
  <scstep>
   <time name="dav">    3.81    3.95</time>
   <time name="total">    4.07    4.22</time>
   <energy>
    <i name="e_fr_energy">   -166.06539009 </i>
    <i name="e_wo_entrp">   -166.06344219 </i>
    <i name="e_0_energy">   -166.06441614 </i>
   </energy>
  </scstep>
  <scstep>
   <time name="dav">    3.64    3.78</time>
   <time name="total">    3.90    4.04</time>
   <energy>
    <i name="e_fr_energy">   -166.06559813 </i>
    <i name="e_wo_entrp">   -166.06365054 </i>
    <i name="e_0_energy">   -166.06462434 </i>
   </energy>
  </scstep>
  <scstep>
   <time name="dav">    3.25    3.38</time>
   <time name="total">    3.50    3.64</time>
   <energy>
    <i name="e_fr_energy">   -166.06567365 </i>
    <i name="e_wo_entrp">   -166.06372593 </i>
    <i name="e_0_energy">   -166.06469979 </i>
   </energy>
  </scstep>
  <scstep>
   <time name="dav">    3.20    3.33</time>
   <time name="total">    3.46    3.59</time>
   <energy>
    <i name="e_fr_energy">   -166.06570247 </i>
    <i name="e_wo_entrp">   -166.06375471 </i>
    <i name="e_0_energy">   -166.06472859 </i>
   </energy>
  </scstep>
  <scstep>
   <time name="dav">    3.11    3.23</time>
   <time name="total">    3.37    3.50</time>
   <energy>
    <i name="e_fr_energy">   -166.06573730 </i>
    <i name="e_wo_entrp">   -166.06378956 </i>
    <i name="e_0_energy">   -166.06476343 </i>
   </energy>
  </scstep>
  <scstep>
   <time name="dav">    2.50    1.40</time>
   <time name="total">    2.75    1.67</time>
   <energy>
    <i name="e_fr_energy">   -166.06574626 </i>
    <i name="e_wo_entrp">   -166.06379848 </i>
    <i name="e_0_energy">   -166.06477237 </i>
   </energy>
  </scstep>
  <scstep>
   <time name="dav">    2.49    2.59</time>
   <time name="total">    2.75    2.85</time>
   <energy>
    <i name="e_fr_energy">   -166.06575056 </i>
    <i name="e_wo_entrp">   -166.06380282 </i>
    <i name="e_0_energy">   -166.06477669 </i>
   </energy>
  </scstep>
  <scstep>
   <time name="dav">    2.59    2.69</time>
   <time name="total">    2.68    2.78</time>
   <energy>
    <i name="alphaZ">     28.04858418 </i>
    <i name="ewald">  11638.90357583 </i>
    <i name="hartreedc"> -13861.54588785 </i>
    <i name="XCdc">    247.81523224 </i>
    <i name="pawpsdc">   7453.27003967 </i>
    <i name="pawaedc">  -7465.53363699 </i>
    <i name="eentropy">     -0.00194774 </i>
    <i name="bandstr">   -855.72689008 </i>
    <i name="atom">   2648.70517965 </i>
    <i name="e_fr_energy">   -166.06575110 </i>
    <i name="e_wo_entrp">   -166.06380336 </i>
    <i name="e_0_energy">   -166.06477723 </i>
   </energy>
  </scstep>
  <structure>
   <crystal>
    <varray name="basis" >
     <v>       7.40170591       0.00000000       0.00000000 </v>
     <v>      -3.70085295       6.41006527       0.00000000 </v>
     <v>       0.00000000       0.00000000      20.00000000 </v>
    </varray>
    <i name="volume">    948.90835877 </i>
    <varray name="rec_basis" >
     <v>       0.13510399       0.07800233       0.00000000 </v>
     <v>       0.00000000       0.15600465       0.00000000 </v>
     <v>       0.00000000       0.00000000       0.05000000 </v>
    </varray>
   </crystal>
   <varray name="positions" >
    <v>       0.99843995       0.99687991       0.50000000 </v>
    <v>       0.33333333       0.00000000       0.50000000 </v>
    <v>       0.66666667       0.00000000       0.50000000 </v>
    <v>       0.00000000       0.33333333       0.50000000 </v>
    <v>       0.33333333       0.33333333       0.50000000 </v>
    <v>       0.66666667       0.33333333       0.50000000 </v>
    <v>       0.00000000       0.66666667       0.50000000 </v>
    <v>       0.33333333       0.66666667       0.50000000 </v>
    <v>       0.66666667       0.66666667       0.50000000 </v>
    <v>       0.22222222       0.11111111       0.50000000 </v>
    <v>       0.55555556       0.11111111       0.50000000 </v>
    <v>       0.88888889       0.11111111       0.50000000 </v>
    <v>       0.22222222       0.44444444       0.50000000 </v>
    <v>       0.55555556       0.44444444       0.50000000 </v>
    <v>       0.88888889       0.44444444       0.50000000 </v>
    <v>       0.22222222       0.77777778       0.50000000 </v>
    <v>       0.55555556       0.77777778       0.50000000 </v>
    <v>       0.88888889       0.77777778       0.50000000 </v>
   </varray>
  </structure>
  <varray name="forces" >
   <v>       0.00000000       1.23254926       0.00000000 </v>
   <v>      -0.02654019       0.04945604      -0.00000000 </v>
   <v>       0.02654019       0.04945604       0.00000000 </v>
   <v>       0.03820086      -0.06212255      -0.00000000 </v>
   <v>      -0.03820086      -0.06212255      -0.00000000 </v>
   <v>       0.00000000      -0.05847449       0.00000000 </v>
   <v>       0.09216273      -0.06420194       0.00000000 </v>
   <v>       0.00000000      -0.05852359       0.00000000 </v>
   <v>      -0.09216273      -0.06420194       0.00000000 </v>
   <v>      -0.10257837      -0.27691927       0.00000000 </v>
   <v>       0.00000000       0.04742363       0.00000000 </v>
   <v>       0.10257837      -0.27691927       0.00000000 </v>
   <v>       0.00000000       0.06059114       0.00000000 </v>
   <v>      -0.01941945       0.01397698      -0.00000000 </v>
   <v>       0.01941945       0.01397698      -0.00000000 </v>
   <v>      -0.04537997      -0.01792938       0.00000000 </v>
   <v>       0.04537997      -0.01792938       0.00000000 </v>
   <v>      -0.00000000      -0.50808570       0.00000000 </v>
  </varray>
  <varray name="stress" >
   <v>      -0.28236468       0.00000000       0.00000000 </v>
   <v>       0.00000000       0.06781924       0.00000000 </v>
   <v>       0.00000000       0.00000000      -0.56321689 </v>
  </varray>
  <energy>
   <i name="e_fr_energy">   -166.06575110 </i>
   <i name="e_wo_entrp">   -166.06380336 </i>
   <i name="e_0_energy">   -166.06477723 </i>
  </energy>
  <time name="totalsc">   92.46   92.43</time>
  <eigenvalues>
   <array>
    <dimension dim="1">band</dimension>
    <dimension dim="2">kpoint</dimension>
    <dimension dim="3">spin</dimension>
    <field>eigene</field>
    <field>occ</field>
    <set>
     <set comment="spin 1">
      <set comment="kpoint 1">
       <r>  -22.2562    1.0000 </r>
       <r>  -19.7192    1.0000 </r>
       <r>  -19.6762    1.0000 </r>
       <r>  -19.6751    1.0000 </r>
       <r>  -19.6703    1.0000 </r>
       <r>  -19.6648    1.0000 </r>
       <r>  -19.6357    1.0000 </r>
       <r>  -15.3756    1.0000 </r>
       <r>  -15.3407    1.0000 </r>
       <r>  -15.3250    1.0000 </r>
       <r>  -15.3224    1.0000 </r>
       <r>  -13.2947    1.0000 </r>
       <r>  -13.2853    1.0000 </r>
       <r>  -12.4235    1.0000 </r>
       <r>  -12.3871    1.0000 </r>
       <r>  -12.3765    1.0000 </r>
       <r>  -12.3729    1.0000 </r>
       <r>  -12.3517    1.0000 </r>
       <r>  -12.3351    1.0000 </r>
       <r>  -10.3601    1.0000 </r>
       <r>   -8.5767    1.0000 </r>
       <r>   -8.5320    1.0000 </r>
       <r>   -8.5236    1.0000 </r>
       <r>   -8.5224    1.0000 </r>
       <r>   -8.5169    1.0000 </r>
       <r>   -8.4689    1.0000 </r>
       <r>   -7.4095    1.0000 </r>
       <r>   -7.3725    1.0000 </r>
       <r>   -7.3718    1.0000 </r>
       <r>   -7.3683    1.0000 </r>
       <r>   -7.3660    1.0000 </r>
       <r>   -7.3380    1.0000 </r>
       <r>   -5.8164    1.0000 </r>
       <r>   -5.7507    1.0000 </r>
       <r>   -2.7878    0.8250 </r>
       <r>   -2.7552    0.5049 </r>
       <r>   -2.7502    0.4484 </r>
       <r>   -2.7277    0.2217 </r>
       <r>    0.5194    0.0000 </r>
       <r>    1.3111    0.0000 </r>
       <r>    1.6315    0.0000 </r>
       <r>    2.0928    0.0000 </r>
       <r>    2.1421    0.0000 </r>
       <r>    2.1454    0.0000 </r>
       <r>    2.1465    0.0000 </r>
       <r>    2.1548    0.0000 </r>
      </set>
      <set comment="kpoint 2">
       <r>  -22.2026    1.0000 </r>
       <r>  -20.3497    1.0000 </r>
       <r>  -19.9985    1.0000 </r>
       <r>  -19.9708    1.0000 </r>
       <r>  -19.2765    1.0000 </r>
       <r>  -19.2488    1.0000 </r>
       <r>  -18.9054    1.0000 </r>
       <r>  -16.0092    1.0000 </r>
       <r>  -15.9814    1.0000 </r>
       <r>  -14.9272    1.0000 </r>
       <r>  -14.9009    1.0000 </r>
       <r>  -13.5931    1.0000 </r>
       <r>  -12.9904    1.0000 </r>
       <r>  -12.9666    1.0000 </r>
       <r>  -12.9559    1.0000 </r>
       <r>  -12.9437    1.0000 </r>
       <r>  -11.7519    1.0000 </r>
       <r>  -11.7265    1.0000 </r>
       <r>  -11.1096    1.0000 </r>
       <r>  -10.2962    1.0000 </r>
       <r>   -8.8807    1.0000 </r>
       <r>   -8.8531    1.0000 </r>
       <r>   -8.8263    1.0000 </r>
       <r>   -8.5185    1.0000 </r>
       <r>   -8.4885    1.0000 </r>
       <r>   -8.1388    1.0000 </r>
       <r>   -8.1289    1.0000 </r>
       <r>   -7.7247    1.0000 </r>
       <r>   -7.7007    1.0000 </r>
       <r>   -6.9338    1.0000 </r>
       <r>   -6.9099    1.0000 </r>
       <r>   -6.5599    1.0000 </r>
       <r>   -5.9974    1.0000 </r>
       <r>   -5.9057    1.0000 </r>
       <r>   -3.5390    1.0000 </r>
       <r>   -3.5140    1.0000 </r>
       <r>   -2.0189    0.0000 </r>
       <r>   -1.9906    0.0000 </r>
       <r>    0.5920    0.0000 </r>
       <r>    0.8825    0.0000 </r>
       <r>    1.3846    0.0000 </r>
       <r>    1.4538    0.0000 </r>
       <r>    1.4894    0.0000 </r>
       <r>    1.7060    0.0000 </r>
       <r>    2.6309    0.0000 </r>
       <r>    2.7406    0.0000 </r>
      </set>
      <set comment="kpoint 3">
       <r>  -22.2027    1.0000 </r>
       <r>  -20.3502    1.0000 </r>
       <r>  -19.9874    1.0000 </r>
       <r>  -19.9815    1.0000 </r>
       <r>  -19.2651    1.0000 </r>
       <r>  -19.2593    1.0000 </r>
       <r>  -18.9059    1.0000 </r>
       <r>  -16.0045    1.0000 </r>
       <r>  -15.9881    1.0000 </r>
       <r>  -14.9201    1.0000 </r>
       <r>  -14.9035    1.0000 </r>
       <r>  -13.6085    1.0000 </r>
       <r>  -12.9839    1.0000 </r>
       <r>  -12.9733    1.0000 </r>
       <r>  -12.9452    1.0000 </r>
       <r>  -12.9430    1.0000 </r>
       <r>  -11.7356    1.0000 </r>
       <r>  -11.7186    1.0000 </r>
       <r>  -11.1312    1.0000 </r>
       <r>  -10.2961    1.0000 </r>
       <r>   -8.8861    1.0000 </r>
       <r>   -8.8592    1.0000 </r>
       <r>   -8.8125    1.0000 </r>
       <r>   -8.5324    1.0000 </r>
       <r>   -8.5042    1.0000 </r>
       <r>   -8.1251    1.0000 </r>
       <r>   -8.1122    1.0000 </r>
       <r>   -7.7198    1.0000 </r>
       <r>   -7.7119    1.0000 </r>
       <r>   -6.9282    1.0000 </r>
       <r>   -6.9211    1.0000 </r>
       <r>   -6.5503    1.0000 </r>
       <r>   -6.0352    1.0000 </r>
       <r>   -5.8674    1.0000 </r>
       <r>   -3.5305    1.0000 </r>
       <r>   -3.5242    1.0000 </r>
       <r>   -2.0055    0.0000 </r>
       <r>   -2.0020    0.0000 </r>
       <r>    0.5920    0.0000 </r>
       <r>    0.8594    0.0000 </r>
       <r>    1.3847    0.0000 </r>
       <r>    1.4767    0.0000 </r>
       <r>    1.4811    0.0000 </r>
       <r>    1.7060    0.0000 </r>
       <r>    2.6309    0.0000 </r>
       <r>    2.7651    0.0000 </r>
      </set>
      <set comment="kpoint 4">
       <r>  -22.0421    1.0000 </r>
       <r>  -20.9270    1.0000 </r>
       <r>  -20.2069    1.0000 </r>
       <r>  -20.1793    1.0000 </r>
       <r>  -18.7696    1.0000 </r>
       <r>  -18.7415    1.0000 </r>
       <r>  -18.0632    1.0000 </r>
       <r>  -16.7589    1.0000 </r>
       <r>  -16.7310    1.0000 </r>
       <r>  -14.7500    1.0000 </r>
       <r>  -14.6362    1.0000 </r>
       <r>  -14.6136    1.0000 </r>
       <r>  -13.5129    1.0000 </r>
       <r>  -13.4898    1.0000 </r>
       <r>  -12.1966    1.0000 </r>
       <r>  -12.1693    1.0000 </r>
       <r>  -11.1170    1.0000 </r>
       <r>  -11.0906    1.0000 </r>
       <r>  -10.1050    1.0000 </r>
       <r>   -9.8522    1.0000 </r>
       <r>   -9.5074    1.0000 </r>
       <r>   -9.4779    1.0000 </r>
       <r>   -9.0455    1.0000 </r>
       <r>   -8.7928    1.0000 </r>
       <r>   -8.7669    1.0000 </r>
       <r>   -8.7401    1.0000 </r>
       <r>   -7.9559    1.0000 </r>
       <r>   -7.9318    1.0000 </r>
       <r>   -7.6807    1.0000 </r>
       <r>   -6.6089    1.0000 </r>
       <r>   -6.3887    1.0000 </r>
       <r>   -6.3649    1.0000 </r>
       <r>   -6.2286    1.0000 </r>
       <r>   -5.7700    1.0000 </r>
       <r>   -4.3104    1.0000 </r>
       <r>   -4.2864    1.0000 </r>
       <r>   -1.2988    0.0000 </r>
       <r>   -1.2683    0.0000 </r>
       <r>   -0.2279    0.0000 </r>
       <r>    0.7688    0.0000 </r>
       <r>    0.8035    0.0000 </r>
       <r>    0.8100    0.0000 </r>
       <r>    1.6055    0.0000 </r>
       <r>    1.9295    0.0000 </r>
       <r>    2.3338    0.0000 </r>
       <r>    2.8522    0.0000 </r>
      </set>
      <set comment="kpoint 5">
       <r>  -22.0423    1.0000 </r>
       <r>  -20.9273    1.0000 </r>
       <r>  -20.1953    1.0000 </r>
       <r>  -20.1901    1.0000 </r>
       <r>  -18.7593    1.0000 </r>
       <r>  -18.7519    1.0000 </r>
       <r>  -18.0624    1.0000 </r>
       <r>  -16.7519    1.0000 </r>
       <r>  -16.7396    1.0000 </r>
       <r>  -14.7665    1.0000 </r>
       <r>  -14.6262    1.0000 </r>
       <r>  -14.6152    1.0000 </r>
       <r>  -13.5015    1.0000 </r>
       <r>  -13.4890    1.0000 </r>
       <r>  -12.1877    1.0000 </r>
       <r>  -12.1843    1.0000 </r>
       <r>  -11.0961    1.0000 </r>
       <r>  -11.0774    1.0000 </r>
       <r>  -10.1047    1.0000 </r>
       <r>   -9.8781    1.0000 </r>
       <r>   -9.5115    1.0000 </r>
       <r>   -9.4898    1.0000 </r>
       <r>   -9.0239    1.0000 </r>
       <r>   -8.7904    1.0000 </r>
       <r>   -8.7877    1.0000 </r>
       <r>   -8.7596    1.0000 </r>
       <r>   -7.9509    1.0000 </r>
       <r>   -7.9432    1.0000 </r>
       <r>   -7.6509    1.0000 </r>
       <r>   -6.6494    1.0000 </r>
       <r>   -6.3833    1.0000 </r>
       <r>   -6.3757    1.0000 </r>
       <r>   -6.1864    1.0000 </r>
       <r>   -5.7548    1.0000 </r>
       <r>   -4.3030    1.0000 </r>
       <r>   -4.2967    1.0000 </r>
       <r>   -1.2830    0.0000 </r>
       <r>   -1.2801    0.0000 </r>
       <r>   -0.2570    0.0000 </r>
       <r>    0.7905    0.0000 </r>
       <r>    0.7937    0.0000 </r>
       <r>    0.8100    0.0000 </r>
       <r>    1.6055    0.0000 </r>
       <r>    1.9295    0.0000 </r>
       <r>    2.3339    0.0000 </r>
       <r>    2.8523    0.0000 </r>
      </set>
      <set comment="kpoint 6">
       <r>  -21.7753    1.0000 </r>
       <r>  -21.4029    1.0000 </r>
       <r>  -20.3114    1.0000 </r>
       <r>  -20.2840    1.0000 </r>
       <r>  -18.1728    1.0000 </r>
       <r>  -18.1442    1.0000 </r>
       <r>  -17.4957    1.0000 </r>
       <r>  -17.4671    1.0000 </r>
       <r>  -17.2307    1.0000 </r>
       <r>  -15.7385    1.0000 </r>
       <r>  -14.3361    1.0000 </r>
       <r>  -14.3123    1.0000 </r>
       <r>  -13.9634    1.0000 </r>
       <r>  -13.9414    1.0000 </r>
       <r>  -11.2723    1.0000 </r>
       <r>  -11.2429    1.0000 </r>
       <r>  -10.6200    1.0000 </r>
       <r>  -10.5943    1.0000 </r>
       <r>  -10.3392    1.0000 </r>
       <r>  -10.3105    1.0000 </r>
       <r>   -9.7882    1.0000 </r>
       <r>   -9.3489    1.0000 </r>
       <r>   -9.1547    1.0000 </r>
       <r>   -9.0883    1.0000 </r>
       <r>   -9.0688    1.0000 </r>
       <r>   -8.6351    1.0000 </r>
       <r>   -8.0724    1.0000 </r>
       <r>   -8.0482    1.0000 </r>
       <r>   -7.5272    1.0000 </r>
       <r>   -7.1782    1.0000 </r>
       <r>   -6.6753    1.0000 </r>
       <r>   -5.7586    1.0000 </r>
       <r>   -5.7347    1.0000 </r>
       <r>   -5.2064    1.0000 </r>
       <r>   -5.0570    1.0000 </r>
       <r>   -5.0345    1.0000 </r>
       <r>   -0.9583    0.0000 </r>
       <r>   -0.6024    0.0000 </r>
       <r>   -0.5695    0.0000 </r>
       <r>    0.0844    0.0000 </r>
       <r>    0.1178    0.0000 </r>
       <r>    1.1732    0.0000 </r>
       <r>    1.6814    0.0000 </r>
       <r>    1.9729    0.0000 </r>
       <r>    2.3019    0.0000 </r>
       <r>    2.4858    0.0000 </r>
      </set>
      <set comment="kpoint 7">
       <r>  -21.7758    1.0000 </r>
       <r>  -21.4028    1.0000 </r>
       <r>  -20.2997    1.0000 </r>
       <r>  -20.2947    1.0000 </r>
       <r>  -18.1642    1.0000 </r>
       <r>  -18.1544    1.0000 </r>
       <r>  -17.4870    1.0000 </r>
       <r>  -17.4768    1.0000 </r>
       <r>  -17.2227    1.0000 </r>
       <r>  -15.7604    1.0000 </r>
       <r>  -14.3258    1.0000 </r>
       <r>  -14.3134    1.0000 </r>
       <r>  -13.9526    1.0000 </r>
       <r>  -13.9407    1.0000 </r>
       <r>  -11.2677    1.0000 </r>
       <r>  -11.2572    1.0000 </r>
       <r>  -10.5896    1.0000 </r>
       <r>  -10.5697    1.0000 </r>
       <r>  -10.3408    1.0000 </r>
       <r>  -10.3233    1.0000 </r>
       <r>   -9.7877    1.0000 </r>
       <r>   -9.3474    1.0000 </r>
       <r>   -9.1317    1.0000 </r>
       <r>   -9.1251    1.0000 </r>
       <r>   -9.0946    1.0000 </r>
       <r>   -8.6644    1.0000 </r>
       <r>   -8.0672    1.0000 </r>
       <r>   -8.0596    1.0000 </r>
       <r>   -7.5607    1.0000 </r>
       <r>   -7.1474    1.0000 </r>
       <r>   -6.6358    1.0000 </r>
       <r>   -5.7536    1.0000 </r>
       <r>   -5.7450    1.0000 </r>
       <r>   -5.1851    1.0000 </r>
       <r>   -5.0491    1.0000 </r>
       <r>   -5.0451    1.0000 </r>
       <r>   -0.9959    0.0000 </r>
       <r>   -0.5822    0.0000 </r>
       <r>   -0.5821    0.0000 </r>
       <r>    0.1045    0.0000 </r>
       <r>    0.1070    0.0000 </r>
       <r>    1.1733    0.0000 </r>
       <r>    1.6815    0.0000 </r>
       <r>    1.9730    0.0000 </r>
       <r>    2.3019    0.0000 </r>
       <r>    2.4860    0.0000 </r>
      </set>
      <set comment="kpoint 8">
       <r>  -22.0957    1.0000 </r>
       <r>  -20.6182    1.0000 </r>
       <r>  -20.6048    1.0000 </r>
       <r>  -19.5285    1.0000 </r>
       <r>  -19.5104    1.0000 </r>
       <r>  -18.4619    1.0000 </r>
       <r>  -18.4481    1.0000 </r>
       <r>  -16.7782    1.0000 </r>
       <r>  -16.1668    1.0000 </r>
       <r>  -15.2305    1.0000 </r>
       <r>  -14.2663    1.0000 </r>
       <r>  -14.1699    1.0000 </r>
       <r>  -14.1485    1.0000 </r>
       <r>  -12.5990    1.0000 </r>
       <r>  -12.3153    1.0000 </r>
       <r>  -12.2953    1.0000 </r>
       <r>  -12.2678    1.0000 </r>
       <r>  -10.5068    1.0000 </r>
       <r>  -10.4716    1.0000 </r>
       <r>  -10.1685    1.0000 </r>
       <r>   -9.2022    1.0000 </r>
       <r>   -9.1729    1.0000 </r>
       <r>   -9.1294    1.0000 </r>
       <r>   -9.1039    1.0000 </r>
       <r>   -8.4315    1.0000 </r>
       <r>   -8.4206    1.0000 </r>
       <r>   -8.0898    1.0000 </r>
       <r>   -8.0514    1.0000 </r>
       <r>   -7.2012    1.0000 </r>
       <r>   -7.1845    1.0000 </r>
       <r>   -6.4247    1.0000 </r>
       <r>   -6.1129    1.0000 </r>
       <r>   -6.1097    1.0000 </r>
       <r>   -6.0946    1.0000 </r>
       <r>   -4.2532    1.0000 </r>
       <r>   -3.9070    1.0000 </r>
       <r>   -1.7000    0.0000 </r>
       <r>   -1.2724    0.0000 </r>
       <r>    0.2547    0.0000 </r>
       <r>    0.2820    0.0000 </r>
       <r>    0.7373    0.0000 </r>
       <r>    1.5320    0.0000 </r>
       <r>    1.8550    0.0000 </r>
       <r>    2.0062    0.0000 </r>
       <r>    2.0294    0.0000 </r>
       <r>    2.7785    0.0000 </r>
      </set>
      <set comment="kpoint 9">
       <r>  -22.0956    1.0000 </r>
       <r>  -20.6245    1.0000 </r>
       <r>  -20.5981    1.0000 </r>
       <r>  -19.5380    1.0000 </r>
       <r>  -19.5019    1.0000 </r>
       <r>  -18.4686    1.0000 </r>
       <r>  -18.4412    1.0000 </r>
       <r>  -16.7806    1.0000 </r>
       <r>  -16.1516    1.0000 </r>
       <r>  -15.2607    1.0000 </r>
       <r>  -14.2420    1.0000 </r>
       <r>  -14.1727    1.0000 </r>
       <r>  -14.1330    1.0000 </r>
       <r>  -12.6185    1.0000 </r>
       <r>  -12.3322    1.0000 </r>
       <r>  -12.3064    1.0000 </r>
       <r>  -12.2590    1.0000 </r>
       <r>  -10.5055    1.0000 </r>
       <r>  -10.4570    1.0000 </r>
       <r>  -10.1687    1.0000 </r>
       <r>   -9.1837    1.0000 </r>
       <r>   -9.1548    1.0000 </r>
       <r>   -9.1392    1.0000 </r>
       <r>   -9.1069    1.0000 </r>
       <r>   -8.4372    1.0000 </r>
       <r>   -8.4165    1.0000 </r>
       <r>   -8.1029    1.0000 </r>
       <r>   -8.0588    1.0000 </r>
       <r>   -7.2037    1.0000 </r>
       <r>   -7.1708    1.0000 </r>
       <r>   -6.3767    1.0000 </r>
       <r>   -6.1621    1.0000 </r>
       <r>   -6.1189    1.0000 </r>
       <r>   -6.0992    1.0000 </r>
       <r>   -4.2672    1.0000 </r>
       <r>   -3.8839    1.0000 </r>
       <r>   -1.7312    0.0000 </r>
       <r>   -1.2509    0.0000 </r>
       <r>    0.2701    0.0000 </r>
       <r>    0.2964    0.0000 </r>
       <r>    0.7373    0.0000 </r>
       <r>    1.5319    0.0000 </r>
       <r>    1.8550    0.0000 </r>
       <r>    1.9791    0.0000 </r>
       <r>    2.0221    0.0000 </r>
       <r>    2.7785    0.0000 </r>
      </set>
      <set comment="kpoint 10">
       <r>  -21.8820    1.0000 </r>
       <r>  -21.1381    1.0000 </r>
       <r>  -20.7693    1.0000 </r>
       <r>  -19.6747    1.0000 </r>
       <r>  -18.9581    1.0000 </r>
       <r>  -17.9166    1.0000 </r>
       <r>  -17.5995    1.0000 </r>
       <r>  -17.5675    1.0000 </r>
       <r>  -16.6741    1.0000 </r>
       <r>  -15.2503    1.0000 </r>
       <r>  -15.2392    1.0000 </r>
       <r>  -14.6459    1.0000 </r>
       <r>  -13.7375    1.0000 </r>
       <r>  -12.8118    1.0000 </r>
       <r>  -11.8887    1.0000 </r>
       <r>  -11.6829    1.0000 </r>
       <r>  -11.3948    1.0000 </r>
       <r>  -10.0539    1.0000 </r>
       <r>   -9.9315    1.0000 </r>
       <r>   -9.9144    1.0000 </r>
       <r>   -9.6981    1.0000 </r>
       <r>   -9.6296    1.0000 </r>
       <r>   -9.2930    1.0000 </r>
       <r>   -9.2458    1.0000 </r>
       <r>   -9.0387    1.0000 </r>
       <r>   -8.6056    1.0000 </r>
       <r>   -8.2400    1.0000 </r>
       <r>   -7.5940    1.0000 </r>
       <r>   -7.3540    1.0000 </r>
       <r>   -7.1443    1.0000 </r>
       <r>   -6.5719    1.0000 </r>
       <r>   -6.5420    1.0000 </r>
       <r>   -5.5722    1.0000 </r>
       <r>   -5.3917    1.0000 </r>
       <r>   -5.0682    1.0000 </r>
       <r>   -4.4413    1.0000 </r>
       <r>   -1.2835    0.0000 </r>
       <r>   -0.6754    0.0000 </r>
       <r>   -0.4381    0.0000 </r>
       <r>   -0.3129    0.0000 </r>
       <r>    1.0280    0.0000 </r>
       <r>    1.2361    0.0000 </r>
       <r>    1.8260    0.0000 </r>
       <r>    2.0443    0.0000 </r>
       <r>    2.1529    0.0000 </r>
       <r>    2.4012    0.0000 </r>
      </set>
      <set comment="kpoint 11">
       <r>  -21.8822    1.0000 </r>
       <r>  -21.1384    1.0000 </r>
       <r>  -20.7687    1.0000 </r>
       <r>  -19.6744    1.0000 </r>
       <r>  -18.9584    1.0000 </r>
       <r>  -17.9180    1.0000 </r>
       <r>  -17.5986    1.0000 </r>
       <r>  -17.5657    1.0000 </r>
       <r>  -16.6735    1.0000 </r>
       <r>  -15.2699    1.0000 </r>
       <r>  -15.2393    1.0000 </r>
       <r>  -14.6299    1.0000 </r>
       <r>  -13.7296    1.0000 </r>
       <r>  -12.8189    1.0000 </r>
       <r>  -11.8963    1.0000 </r>
       <r>  -11.6701    1.0000 </r>
       <r>  -11.3937    1.0000 </r>
       <r>  -10.0440    1.0000 </r>
       <r>   -9.9142    1.0000 </r>
       <r>   -9.9017    1.0000 </r>
       <r>   -9.7187    1.0000 </r>
       <r>   -9.6435    1.0000 </r>
       <r>   -9.2814    1.0000 </r>
       <r>   -9.2674    1.0000 </r>
       <r>   -9.0366    1.0000 </r>
       <r>   -8.6084    1.0000 </r>
       <r>   -8.2761    1.0000 </r>
       <r>   -7.5580    1.0000 </r>
       <r>   -7.3574    1.0000 </r>
       <r>   -7.1639    1.0000 </r>
       <r>   -6.5680    1.0000 </r>
       <r>   -6.5215    1.0000 </r>
       <r>   -5.5859    1.0000 </r>
       <r>   -5.3735    1.0000 </r>
       <r>   -5.0713    1.0000 </r>
       <r>   -4.4381    1.0000 </r>
       <r>   -1.2886    0.0000 </r>
       <r>   -0.7084    0.0000 </r>
       <r>   -0.4284    0.0000 </r>
       <r>   -0.2895    0.0000 </r>
       <r>    1.0280    0.0000 </r>
       <r>    1.2248    0.0000 </r>
       <r>    1.8261    0.0000 </r>
       <r>    2.0445    0.0000 </r>
       <r>    2.1529    0.0000 </r>
       <r>    2.4141    0.0000 </r>
      </set>
      <set comment="kpoint 12">
       <r>  -21.8819    1.0000 </r>
       <r>  -21.1385    1.0000 </r>
       <r>  -20.7688    1.0000 </r>
       <r>  -19.6753    1.0000 </r>
       <r>  -18.9583    1.0000 </r>
       <r>  -17.9177    1.0000 </r>
       <r>  -17.5965    1.0000 </r>
       <r>  -17.5711    1.0000 </r>
       <r>  -16.6654    1.0000 </r>
       <r>  -15.2729    1.0000 </r>
       <r>  -15.2411    1.0000 </r>
       <r>  -14.6282    1.0000 </r>
       <r>  -13.7147    1.0000 </r>
       <r>  -12.8332    1.0000 </r>
       <r>  -11.9132    1.0000 </r>
       <r>  -11.6952    1.0000 </r>
       <r>  -11.3767    1.0000 </r>
       <r>  -10.0274    1.0000 </r>
       <r>   -9.9179    1.0000 </r>
       <r>   -9.9148    1.0000 </r>
       <r>   -9.7188    1.0000 </r>
       <r>   -9.6124    1.0000 </r>
       <r>   -9.2951    1.0000 </r>
       <r>   -9.2522    1.0000 </r>
       <r>   -9.0382    1.0000 </r>
       <r>   -8.6067    1.0000 </r>
       <r>   -8.2600    1.0000 </r>
       <r>   -7.5840    1.0000 </r>
       <r>   -7.3520    1.0000 </r>
       <r>   -7.1168    1.0000 </r>
       <r>   -6.5713    1.0000 </r>
       <r>   -6.5632    1.0000 </r>
       <r>   -5.5883    1.0000 </r>
       <r>   -5.3921    1.0000 </r>
       <r>   -5.0810    1.0000 </r>
       <r>   -4.4185    1.0000 </r>
       <r>   -1.3182    0.0000 </r>
       <r>   -0.6739    0.0000 </r>
       <r>   -0.4116    0.0000 </r>
       <r>   -0.2848    0.0000 </r>
       <r>    1.0280    0.0000 </r>
       <r>    1.2127    0.0000 </r>
       <r>    1.8260    0.0000 </r>
       <r>    2.0445    0.0000 </r>
       <r>    2.1529    0.0000 </r>
       <r>    2.3945    0.0000 </r>
      </set>
      <set comment="kpoint 13">
       <r>  -21.5689    1.0000 </r>
       <r>  -21.5558    1.0000 </r>
       <r>  -20.8218    1.0000 </r>
       <r>  -19.7267    1.0000 </r>
       <r>  -18.3160    1.0000 </r>
       <r>  -18.2967    1.0000 </r>
       <r>  -17.3175    1.0000 </r>
       <r>  -17.2970    1.0000 </r>
       <r>  -16.9909    1.0000 </r>
       <r>  -15.9300    1.0000 </r>
       <r>  -15.0240    1.0000 </r>
       <r>  -15.0004    1.0000 </r>
       <r>  -13.2955    1.0000 </r>
       <r>  -13.2693    1.0000 </r>
       <r>  -11.3685    1.0000 </r>
       <r>  -11.0016    1.0000 </r>
       <r>  -10.9739    1.0000 </r>
       <r>  -10.5086    1.0000 </r>
       <r>  -10.4857    1.0000 </r>
       <r>   -9.8959    1.0000 </r>
       <r>   -9.6452    1.0000 </r>
       <r>   -9.5418    1.0000 </r>
       <r>   -9.5311    1.0000 </r>
       <r>   -9.3427    1.0000 </r>
       <r>   -8.6666    1.0000 </r>
       <r>   -8.4072    1.0000 </r>
       <r>   -8.1286    1.0000 </r>
       <r>   -8.0987    1.0000 </r>
       <r>   -7.4078    1.0000 </r>
       <r>   -7.0796    1.0000 </r>
       <r>   -7.0469    1.0000 </r>
       <r>   -5.8660    1.0000 </r>
       <r>   -5.8467    1.0000 </r>
       <r>   -5.0734    1.0000 </r>
       <r>   -5.0196    1.0000 </r>
       <r>   -4.9977    1.0000 </r>
       <r>   -1.0771    0.0000 </r>
       <r>   -0.8448    0.0000 </r>
       <r>   -0.8085    0.0000 </r>
       <r>    0.3979    0.0000 </r>
       <r>    0.4258    0.0000 </r>
       <r>    1.4631    0.0000 </r>
       <r>    1.4646    0.0000 </r>
       <r>    2.2661    0.0000 </r>
       <r>    2.2666    0.0000 </r>
       <r>    2.4965    0.0000 </r>
      </set>
      <set comment="kpoint 14">
       <r>  -21.5755    1.0000 </r>
       <r>  -21.5496    1.0000 </r>
       <r>  -20.8213    1.0000 </r>
       <r>  -19.7261    1.0000 </r>
       <r>  -18.3256    1.0000 </r>
       <r>  -18.2875    1.0000 </r>
       <r>  -17.3287    1.0000 </r>
       <r>  -17.2894    1.0000 </r>
       <r>  -16.9779    1.0000 </r>
       <r>  -15.9573    1.0000 </r>
       <r>  -15.0178    1.0000 </r>
       <r>  -14.9908    1.0000 </r>
       <r>  -13.2955    1.0000 </r>
       <r>  -13.2674    1.0000 </r>
       <r>  -11.3399    1.0000 </r>
       <r>  -11.0005    1.0000 </r>
       <r>  -10.9775    1.0000 </r>
       <r>  -10.5169    1.0000 </r>
       <r>  -10.4943    1.0000 </r>
       <r>   -9.9257    1.0000 </r>
       <r>   -9.6137    1.0000 </r>
       <r>   -9.5461    1.0000 </r>
       <r>   -9.5249    1.0000 </r>
       <r>   -9.3208    1.0000 </r>
       <r>   -8.6688    1.0000 </r>
       <r>   -8.4452    1.0000 </r>
       <r>   -8.1662    1.0000 </r>
       <r>   -8.1211    1.0000 </r>
       <r>   -7.4122    1.0000 </r>
       <r>   -7.0621    1.0000 </r>
       <r>   -6.9968    1.0000 </r>
       <r>   -5.8714    1.0000 </r>
       <r>   -5.8398    1.0000 </r>
       <r>   -5.0504    1.0000 </r>
       <r>   -5.0298    1.0000 </r>
       <r>   -5.0000    1.0000 </r>
       <r>   -1.1155    0.0000 </r>
       <r>   -0.8267    0.0000 </r>
       <r>   -0.8042    0.0000 </r>
       <r>    0.3955    0.0000 </r>
       <r>    0.4236    0.0000 </r>
       <r>    1.4625    0.0000 </r>
       <r>    1.4654    0.0000 </r>
       <r>    2.2660    0.0000 </r>
       <r>    2.2670    0.0000 </r>
       <r>    2.5996    0.0000 </r>
      </set>
      <set comment="kpoint 15">
       <r>  -21.6161    1.0000 </r>
       <r>  -21.2502    1.0000 </r>
       <r>  -21.2373    1.0000 </r>
       <r>  -19.0699    1.0000 </r>
       <r>  -19.0511    1.0000 </r>
       <r>  -18.3556    1.0000 </r>
       <r>  -17.0966    1.0000 </r>
       <r>  -17.0799    1.0000 </r>
       <r>  -16.7153    1.0000 </r>
       <r>  -15.6687    1.0000 </r>
       <r>  -15.6306    1.0000 </r>
       <r>  -15.6034    1.0000 </r>
       <r>  -12.9263    1.0000 </r>
       <r>  -12.2691    1.0000 </r>
       <r>  -12.2462    1.0000 </r>
       <r>  -11.3459    1.0000 </r>
       <r>  -10.5743    1.0000 </r>
       <r>  -10.5605    1.0000 </r>
       <r>  -10.5410    1.0000 </r>
       <r>   -9.8278    1.0000 </r>
       <r>   -9.8044    1.0000 </r>
       <r>   -9.5988    1.0000 </r>
       <r>   -9.1665    1.0000 </r>
       <r>   -9.1559    1.0000 </r>
       <r>   -8.8429    1.0000 </r>
       <r>   -8.7962    1.0000 </r>
       <r>   -7.8977    1.0000 </r>
       <r>   -7.7113    1.0000 </r>
       <r>   -7.6628    1.0000 </r>
       <r>   -7.0656    1.0000 </r>
       <r>   -6.6752    1.0000 </r>
       <r>   -6.6578    1.0000 </r>
       <r>   -5.8908    1.0000 </r>
       <r>   -5.0136    1.0000 </r>
       <r>   -4.9891    1.0000 </r>
       <r>   -4.6802    1.0000 </r>
       <r>   -1.2164    0.0000 </r>
       <r>   -1.0493    0.0000 </r>
       <r>   -1.0120    0.0000 </r>
       <r>    0.5220    0.0000 </r>
       <r>    1.3915    0.0000 </r>
       <r>    1.4746    0.0000 </r>
       <r>    1.4993    0.0000 </r>
       <r>    1.8991    0.0000 </r>
       <r>    1.9006    0.0000 </r>
       <r>    2.1933    0.0000 </r>
      </set>
      <set comment="kpoint 16">
       <r>  -21.6156    1.0000 </r>
       <r>  -21.2570    1.0000 </r>
       <r>  -21.2310    1.0000 </r>
       <r>  -19.0791    1.0000 </r>
       <r>  -19.0422    1.0000 </r>
       <r>  -18.3556    1.0000 </r>
       <r>  -17.1057    1.0000 </r>
       <r>  -17.0780    1.0000 </r>
       <r>  -16.7023    1.0000 </r>
       <r>  -15.6967    1.0000 </r>
       <r>  -15.6198    1.0000 </r>
       <r>  -15.5916    1.0000 </r>
       <r>  -12.9027    1.0000 </r>
       <r>  -12.2893    1.0000 </r>
       <r>  -12.2611    1.0000 </r>
       <r>  -11.3712    1.0000 </r>
       <r>  -10.5591    1.0000 </r>
       <r>  -10.5447    1.0000 </r>
       <r>  -10.5141    1.0000 </r>
       <r>   -9.8393    1.0000 </r>
       <r>   -9.8138    1.0000 </r>
       <r>   -9.5996    1.0000 </r>
       <r>   -9.1714    1.0000 </r>
       <r>   -9.1505    1.0000 </r>
       <r>   -8.8517    1.0000 </r>
       <r>   -8.8011    1.0000 </r>
       <r>   -7.8573    1.0000 </r>
       <r>   -7.7084    1.0000 </r>
       <r>   -7.6513    1.0000 </r>
       <r>   -7.1085    1.0000 </r>
       <r>   -6.6786    1.0000 </r>
       <r>   -6.6459    1.0000 </r>
       <r>   -5.8990    1.0000 </r>
       <r>   -5.0239    1.0000 </r>
       <r>   -5.0024    1.0000 </r>
       <r>   -4.6571    1.0000 </r>
       <r>   -1.2521    0.0000 </r>
       <r>   -1.0235    0.0000 </r>
       <r>   -0.9994    0.0000 </r>
       <r>    0.5416    0.0000 </r>
       <r>    1.3913    0.0000 </r>
       <r>    1.4561    0.0000 </r>
       <r>    1.4932    0.0000 </r>
       <r>    1.8984    0.0000 </r>
       <r>    1.9014    0.0000 </r>
       <r>    2.1931    0.0000 </r>
      </set>
     </set>
    </set>
   </array>
  </eigenvalues>
  <separator name="orbital magnetization" >
   <v name="MAGDIPOLOUT">      0.00000000      0.00000000      0.00000000</v>
  </separator>
  <dos>
   <i name="efermi">     -2.75478849 </i>
   <total>
    <array>
     <dimension dim="1">gridpoints</dimension>
     <dimension dim="2">spin</dimension>
     <field>energy</field>
     <field>total</field>
     <field>integrated</field>
     <set>
      <set comment="spin 1">
       <r>   -23.5116     0.0000     0.0000 </r>
       <r>   -23.4196     0.0000     0.0000 </r>
       <r>   -23.3275     0.0000     0.0000 </r>
       <r>   -23.2354     0.0000     0.0000 </r>
       <r>   -23.1434     0.0000     0.0000 </r>
       <r>   -23.0513     0.0000     0.0000 </r>
       <r>   -22.9593     0.0000     0.0000 </r>
       <r>   -22.8672     0.0000     0.0000 </r>
       <r>   -22.7751     0.0000     0.0000 </r>
       <r>   -22.6831     0.0000     0.0000 </r>
       <r>   -22.5910     0.0000     0.0000 </r>
       <r>   -22.4989     0.0000     0.0000 </r>
       <r>   -22.4069     0.0000     0.0000 </r>
       <r>   -22.3148     0.0236     0.0022 </r>
       <r>   -22.2227     1.1019     0.1036 </r>
       <r>   -22.1307     2.3663     0.3215 </r>
       <r>   -22.0386     3.5664     0.6498 </r>
       <r>   -21.9465     1.5372     0.7913 </r>
       <r>   -21.8545     4.0227     1.1617 </r>
       <r>   -21.7624     2.8376     1.4229 </r>
       <r>   -21.6704     1.1172     1.5258 </r>
       <r>   -21.5783     3.8765     1.8827 </r>
       <r>   -21.4862     3.8605     2.2381 </r>
       <r>   -21.3942     1.6634     2.3912 </r>
       <r>   -21.3021     1.3593     2.5164 </r>
       <r>   -21.2100     4.2000     2.9030 </r>
       <r>   -21.1180     4.6479     3.3309 </r>
       <r>   -21.0259     1.5068     3.4697 </r>
       <r>   -20.9338     1.1272     3.5734 </r>
       <r>   -20.8418     2.3700     3.7916 </r>
       <r>   -20.7497     5.5222     4.3000 </r>
       <r>   -20.6576     2.1624     4.4991 </r>
       <r>   -20.5656     4.2159     4.8872 </r>
       <r>   -20.4735     0.5600     4.9388 </r>
       <r>   -20.3815     0.5576     4.9901 </r>
       <r>   -20.2894     5.1313     5.4625 </r>
       <r>   -20.1973     4.6848     5.8938 </r>
       <r>   -20.1053     2.8816     6.1591 </r>
       <r>   -20.0132     1.2215     6.2716 </r>
       <r>   -19.9211     3.9105     6.6316 </r>
       <r>   -19.8291     0.2383     6.6536 </r>
       <r>   -19.7370     1.4202     6.7843 </r>
       <r>   -19.6449     7.4518     7.4704 </r>
       <r>   -19.5529     2.7602     7.7245 </r>
       <r>   -19.4608     4.0093     8.0936 </r>
       <r>   -19.3687     0.3244     8.1235 </r>
       <r>   -19.2767     1.8596     8.2947 </r>
       <r>   -19.1846     3.3568     8.6037 </r>
       <r>   -19.0925     1.1497     8.7095 </r>
       <r>   -19.0005     4.5948     9.1326 </r>
       <r>   -18.9084     5.8123     9.6677 </r>
       <r>   -18.8164     2.0935     9.8604 </r>
       <r>   -18.7243     3.9942    10.2281 </r>
       <r>   -18.6322     1.0665    10.3263 </r>
       <r>   -18.5402     0.0555    10.3314 </r>
       <r>   -18.4481     3.0129    10.6088 </r>
       <r>   -18.3560     4.0597    10.9826 </r>
       <r>   -18.2640     5.4742    11.4865 </r>
       <r>   -18.1719     2.6344    11.7291 </r>
       <r>   -18.0798     4.1368    12.1099 </r>
       <r>   -17.9878     1.9888    12.2930 </r>
       <r>   -17.8957     3.8057    12.6434 </r>
       <r>   -17.8036     1.4315    12.7752 </r>
       <r>   -17.7116     0.0072    12.7759 </r>
       <r>   -17.6195     1.8422    12.9455 </r>
       <r>   -17.5275     8.5884    13.7361 </r>
       <r>   -17.4354     4.9499    14.1919 </r>
       <r>   -17.3433     1.5158    14.3314 </r>
       <r>   -17.2513     4.6988    14.7640 </r>
       <r>   -17.1592     2.4286    14.9876 </r>
       <r>   -17.0671     3.8125    15.3386 </r>
       <r>   -16.9751     3.0806    15.6222 </r>
       <r>   -16.8830     0.9999    15.7143 </r>
       <r>   -16.7909     1.6025    15.8618 </r>
       <r>   -16.6989     8.6088    16.6543 </r>
       <r>   -16.6068     5.5544    17.1657 </r>
       <r>   -16.5147     0.1951    17.1837 </r>
       <r>   -16.4227     0.0000    17.1837 </r>
       <r>   -16.3306     0.0000    17.1837 </r>
       <r>   -16.2386     0.0437    17.1877 </r>
       <r>   -16.1465     1.7223    17.3463 </r>
       <r>   -16.0544     1.2024    17.4570 </r>
       <r>   -15.9624     4.7264    17.8921 </r>
       <r>   -15.8703     2.8576    18.1552 </r>
       <r>   -15.7782     0.6025    18.2106 </r>
       <r>   -15.6862     3.2554    18.5104 </r>
       <r>   -15.5941     5.1930    18.9884 </r>
       <r>   -15.5020     1.6680    19.1420 </r>
       <r>   -15.4100     0.1006    19.1513 </r>
       <r>   -15.3179     1.6741    19.3054 </r>
       <r>   -15.2258     9.7404    20.2021 </r>
       <r>   -15.1338     3.5563    20.5295 </r>
       <r>   -15.0417     1.0620    20.6273 </r>
       <r>   -14.9496     4.8511    21.0739 </r>
       <r>   -14.8576     4.3861    21.4777 </r>
       <r>   -14.7655     1.3935    21.6060 </r>
       <r>   -14.6735     2.8097    21.8647 </r>
       <r>   -14.5814     8.4041    22.6384 </r>
       <r>   -14.4893     1.0451    22.7346 </r>
       <r>   -14.3973     0.1164    22.7453 </r>
       <r>   -14.3052     3.7831    23.0936 </r>
       <r>   -14.2131     4.1513    23.4758 </r>
       <r>   -14.1211     4.3234    23.8738 </r>
       <r>   -14.0290     1.0121    23.9670 </r>
       <r>   -13.9369     3.3380    24.2743 </r>
       <r>   -13.8449     1.8900    24.4483 </r>
       <r>   -13.7528     1.2998    24.5680 </r>
       <r>   -13.6607     3.9542    24.9320 </r>
       <r>   -13.5687     2.3449    25.1479 </r>
       <r>   -13.4766     4.2733    25.5413 </r>
       <r>   -13.3846     1.4511    25.6749 </r>
       <r>   -13.2925     2.4870    25.9039 </r>
       <r>   -13.2004     3.6174    26.2369 </r>
       <r>   -13.1084     0.0875    26.2450 </r>
       <r>   -13.0163     0.9705    26.3343 </r>
       <r>   -12.9242     9.1223    27.1742 </r>
       <r>   -12.8322     5.2102    27.6539 </r>
       <r>   -12.7401     3.2485    27.9529 </r>
       <r>   -12.6480     0.3939    27.9892 </r>
       <r>   -12.5560     2.1021    28.1827 </r>
       <r>   -12.4639     0.3004    28.2104 </r>
       <r>   -12.3718     1.5887    28.3566 </r>
       <r>   -12.2798     7.8640    29.0806 </r>
       <r>   -12.1877     8.7219    29.8836 </r>
       <r>   -12.0956     2.9913    30.1590 </r>
       <r>   -12.0036     0.0588    30.1644 </r>
       <r>   -11.9115     1.9597    30.3448 </r>
       <r>   -11.8195     3.3378    30.6521 </r>
       <r>   -11.7274     3.7021    30.9930 </r>
       <r>   -11.6353     6.4018    31.5823 </r>
       <r>   -11.5433     0.5462    31.6326 </r>
       <r>   -11.4512     0.2524    31.6559 </r>
       <r>   -11.3591     6.4913    32.2535 </r>
       <r>   -11.2671     6.0735    32.8126 </r>
       <r>   -11.1750     3.3481    33.1209 </r>
       <r>   -11.0829     5.4863    33.6260 </r>
       <r>   -10.9909     4.7846    34.0665 </r>
       <r>   -10.8988     2.7785    34.3223 </r>
       <r>   -10.8067     0.0465    34.3265 </r>
       <r>   -10.7147     0.0075    34.3272 </r>
       <r>   -10.6226     1.7076    34.4844 </r>
       <r>   -10.5306    10.8915    35.4872 </r>
       <r>   -10.4385    10.4135    36.4459 </r>
       <r>   -10.3464     3.0458    36.7263 </r>
       <r>   -10.2544     5.8590    37.2657 </r>
       <r>   -10.1623     2.0975    37.4588 </r>
       <r>   -10.0702     4.3975    37.8636 </r>
       <r>    -9.9782     4.8977    38.3145 </r>
       <r>    -9.8861    10.8456    39.3130 </r>
       <r>    -9.7940     9.9057    40.2250 </r>
       <r>    -9.7020     6.3232    40.8071 </r>
       <r>    -9.6099     8.6242    41.6011 </r>
       <r>    -9.5178     9.0177    42.4313 </r>
       <r>    -9.4258     5.3813    42.9268 </r>
       <r>    -9.3337     3.9427    43.2897 </r>
       <r>    -9.2417    10.1719    44.2262 </r>
       <r>    -9.1496    12.2467    45.3537 </r>
       <r>    -9.0575    14.5237    46.6908 </r>
       <r>    -8.9655     6.9792    47.3333 </r>
       <r>    -8.8734     3.4200    47.6482 </r>
       <r>    -8.7813    11.8943    48.7433 </r>
       <r>    -8.6893     7.0151    49.3891 </r>
       <r>    -8.5972     7.5316    50.0825 </r>
       <r>    -8.5051     6.8967    50.7174 </r>
       <r>    -8.4131     8.1431    51.4671 </r>
       <r>    -8.3210     3.3805    51.7783 </r>
       <r>    -8.2289     3.9557    52.1425 </r>
       <r>    -8.1369     5.7169    52.6688 </r>
       <r>    -8.0448    13.4672    53.9087 </r>
       <r>    -7.9527     5.5167    54.4166 </r>
       <r>    -7.8607     4.8736    54.8653 </r>
       <r>    -7.7686     1.3005    54.9850 </r>
       <r>    -7.6766     8.2270    55.7424 </r>
       <r>    -7.5845     7.1555    56.4012 </r>
       <r>    -7.4924     5.0450    56.8656 </r>
       <r>    -7.4004     3.0918    57.1503 </r>
       <r>    -7.3083     7.2227    57.8152 </r>
       <r>    -7.2162     2.4464    58.0405 </r>
       <r>    -7.1242     9.8462    58.9469 </r>
       <r>    -7.0321     7.6575    59.6519 </r>
       <r>    -6.9400     3.6574    59.9887 </r>
       <r>    -6.8480     3.5583    60.3163 </r>
       <r>    -6.7559     0.1716    60.3320 </r>
       <r>    -6.6638     4.4162    60.7386 </r>
       <r>    -6.5718    10.5016    61.7054 </r>
       <r>    -6.4797     8.7199    62.5082 </r>
       <r>    -6.3877     4.1841    62.8934 </r>
       <r>    -6.2956     4.0139    63.2630 </r>
       <r>    -6.2035     1.7871    63.4275 </r>
       <r>    -6.1115     4.8852    63.8773 </r>
       <r>    -6.0194     5.0049    64.3380 </r>
       <r>    -5.9273     2.7290    64.5893 </r>
       <r>    -5.8353     7.9325    65.3196 </r>
       <r>    -5.7432     7.1586    65.9786 </r>
       <r>    -5.6511     3.4562    66.2968 </r>
       <r>    -5.5591     3.8097    66.6476 </r>
       <r>    -5.4670     1.4529    66.7813 </r>
       <r>    -5.3749     3.2223    67.0780 </r>
       <r>    -5.2829     2.0515    67.2669 </r>
       <r>    -5.1908     1.5626    67.4107 </r>
       <r>    -5.0988     3.3309    67.7174 </r>
       <r>    -5.0067    15.4590    69.1406 </r>
       <r>    -4.9146     6.1613    69.7078 </r>
       <r>    -4.8226     0.0702    69.7143 </r>
       <r>    -4.7305     0.1543    69.7285 </r>
       <r>    -4.6384     2.0307    69.9155 </r>
       <r>    -4.5464     0.4789    69.9595 </r>
       <r>    -4.4543     1.4780    70.0956 </r>
       <r>    -4.3622     3.9178    70.4563 </r>
       <r>    -4.2702     5.0568    70.9219 </r>
       <r>    -4.1781     2.8061    71.1802 </r>
       <r>    -4.0860     0.0378    71.1837 </r>
       <r>    -3.9940     0.0131    71.1849 </r>
       <r>    -3.9019     1.2455    71.2996 </r>
       <r>    -3.8098     1.3800    71.4266 </r>
       <r>    -3.7178     0.0214    71.4286 </r>
       <r>    -3.6257     0.0189    71.4303 </r>
       <r>    -3.5337     2.2478    71.6373 </r>
       <r>    -3.4416     2.9983    71.9133 </r>
       <r>    -3.3495     0.0551    71.9184 </r>
       <r>    -3.2575     0.0000    71.9184 </r>
       <r>    -3.1654     0.0000    71.9184 </r>
       <r>    -3.0733     0.0000    71.9184 </r>
       <r>    -2.9813     0.0000    71.9184 </r>
       <r>    -2.8892     0.0010    71.9185 </r>
       <r>    -2.7971     0.2788    71.9441 </r>
       <r>    -2.7051     1.2943    72.0633 </r>
       <r>    -2.6130     0.1991    72.0816 </r>
       <r>    -2.5209     0.0003    72.0816 </r>
       <r>    -2.4289     0.0000    72.0816 </r>
       <r>    -2.3368     0.0000    72.0816 </r>
       <r>    -2.2448     0.0000    72.0816 </r>
       <r>    -2.1527     0.0002    72.0816 </r>
       <r>    -2.0606     0.3493    72.1138 </r>
       <r>    -1.9686     4.0778    72.4892 </r>
       <r>    -1.8765     0.8914    72.5713 </r>
       <r>    -1.7844     0.0751    72.5782 </r>
       <r>    -1.6924     1.7309    72.7376 </r>
       <r>    -1.6003     0.8512    72.8159 </r>
       <r>    -1.5082     0.0044    72.8163 </r>
       <r>    -1.4162     0.0064    72.8169 </r>
       <r>    -1.3241     2.1524    73.0151 </r>
       <r>    -1.2320    11.1648    74.0430 </r>
       <r>    -1.1400     2.9008    74.3100 </r>
       <r>    -1.0479     3.5610    74.6379 </r>
       <r>    -0.9559     5.6355    75.1567 </r>
       <r>    -0.8638     1.9720    75.3382 </r>
       <r>    -0.7717     4.0924    75.7150 </r>
       <r>    -0.6797     3.4453    76.0322 </r>
       <r>    -0.5876     4.7786    76.4721 </r>
       <r>    -0.4955     2.9640    76.7450 </r>
       <r>    -0.4035     3.7776    77.0928 </r>
       <r>    -0.3114     3.2886    77.3956 </r>
       <r>    -0.2193     5.1715    77.8717 </r>
       <r>    -0.1273     0.9466    77.9588 </r>
       <r>    -0.0352     0.0048    77.9592 </r>
       <r>     0.0569     0.6089    78.0153 </r>
       <r>     0.1489     4.1202    78.3946 </r>
       <r>     0.2410     1.6613    78.5476 </r>
       <r>     0.3331     4.0330    78.9189 </r>
       <r>     0.4251     3.6443    79.2544 </r>
       <r>     0.5172     3.1436    79.5438 </r>
       <r>     0.6092     3.6406    79.8790 </r>
       <r>     0.7013     1.3439    80.0027 </r>
       <r>     0.7934     5.8644    80.5426 </r>
       <r>     0.8854     5.8607    81.0822 </r>
       <r>     0.9775     1.5033    81.2206 </r>
       <r>     1.0696     4.2862    81.6152 </r>
       <r>     1.1616     1.8492    81.7854 </r>
       <r>     1.2537     5.6220    82.3030 </r>
       <r>     1.3458     2.1380    82.4998 </r>
       <r>     1.4378     7.1592    83.1590 </r>
       <r>     1.5299    13.7356    84.4235 </r>
       <r>     1.6220     4.6049    84.8475 </r>
       <r>     1.7140     4.7422    85.2840 </r>
       <r>     1.8061     3.3292    85.5905 </r>
       <r>     1.8981     8.9298    86.4127 </r>
       <r>     1.9902     8.8211    87.2248 </r>
       <r>     2.0823     9.1578    88.0679 </r>
       <r>     2.1743     7.0943    88.7210 </r>
       <r>     2.2664     6.7962    89.3467 </r>
       <r>     2.3585     7.2999    90.0188 </r>
       <r>     2.4505     5.6392    90.5379 </r>
       <r>     2.5426     4.1026    90.9156 </r>
       <r>     2.6347     2.4412    91.1404 </r>
       <r>     2.7267     2.2778    91.3501 </r>
       <r>     2.8188     4.4377    91.7586 </r>
       <r>     2.9109     2.4919    91.9881 </r>
       <r>     3.0029     0.1297    92.0000 </r>
       <r>     3.0950     0.0000    92.0000 </r>
       <r>     3.1871     0.0000    92.0000 </r>
       <r>     3.2791     0.0000    92.0000 </r>
       <r>     3.3712     0.0000    92.0000 </r>
       <r>     3.4632     0.0000    92.0000 </r>
       <r>     3.5553     0.0000    92.0000 </r>
       <r>     3.6474     0.0000    92.0000 </r>
       <r>     3.7394     0.0000    92.0000 </r>
       <r>     3.8315     0.0000    92.0000 </r>
       <r>     3.9236     0.0000    92.0000 </r>
       <r>     4.0156     0.0000    92.0000 </r>
       <r>     4.1077     0.0000    92.0000 </r>
      </set>
     </set>
    </array>
   </total>
  </dos>
 </calculation>
 <structure name="finalpos" >
  <crystal>
   <varray name="basis" >
    <v>       7.40170591       0.00000000       0.00000000 </v>
    <v>      -3.70085295       6.41006527       0.00000000 </v>
    <v>       0.00000000       0.00000000      20.00000000 </v>
   </varray>
   <i name="volume">    948.90835877 </i>
   <varray name="rec_basis" >
    <v>       0.13510399       0.07800233       0.00000000 </v>
    <v>       0.00000000       0.15600465       0.00000000 </v>
    <v>       0.00000000       0.00000000       0.05000000 </v>
   </varray>
  </crystal>
  <varray name="positions" >
   <v>       0.99843995       0.99687991       0.50000000 </v>
   <v>       0.33333333       0.00000000       0.50000000 </v>
   <v>       0.66666667       0.00000000       0.50000000 </v>
   <v>       0.00000000       0.33333333       0.50000000 </v>
   <v>       0.33333333       0.33333333       0.50000000 </v>
   <v>       0.66666667       0.33333333       0.50000000 </v>
   <v>       0.00000000       0.66666667       0.50000000 </v>
   <v>       0.33333333       0.66666667       0.50000000 </v>
   <v>       0.66666667       0.66666667       0.50000000 </v>
   <v>       0.22222222       0.11111111       0.50000000 </v>
   <v>       0.55555556       0.11111111       0.50000000 </v>
   <v>       0.88888889       0.11111111       0.50000000 </v>
   <v>       0.22222222       0.44444444       0.50000000 </v>
   <v>       0.55555556       0.44444444       0.50000000 </v>
   <v>       0.88888889       0.44444444       0.50000000 </v>
   <v>       0.22222222       0.77777778       0.50000000 </v>
   <v>       0.55555556       0.77777778       0.50000000 </v>
   <v>       0.88888889       0.77777778       0.50000000 </v>
  </varray>
 </structure>
</modeling>
