    5    5    1    1
  0.1019554E+03  0.4429597E-09  0.4429597E-09  0.3000000E-08  0.5000000E-15
  1.000000000000000E-004
  CAR 
 SCF                                     
     48     81     32
 
  0.0000000E+00  0.0000000E+00  0.0000000E+00  0.4444444E-02
      1        -24.426653   1.000000
      2        -24.426653   1.000000
      3        -24.425672   1.000000
      4        -24.425671   1.000000
      5        -24.420005   1.000000
      6        -24.418919   1.000000
      7        -24.416155   1.000000
      8        -24.416155   1.000000
      9        -24.415057   1.000000
     10        -24.415057   1.000000
     11        -14.247415   1.000000
     12        -13.790858   1.000000
     13        -12.115961   1.000000
     14        -10.371284   1.000000
     15         -9.322862   1.000000
     16         -3.385128   1.000000
     17         -2.879434   1.000000
     18         -2.879434   1.000000
     19         -2.655807   1.000000
     20         -2.655807   1.000000
     21         -2.536983   1.000000
     22         -2.285393   1.000000
     23         -2.083587   1.000000
     24         -2.083586   1.000000
     25         -0.865017   0.000000
     26         -0.216251   0.000000
     27         -0.216250   0.000000
     28          0.521611   0.000000
     29          0.704593   0.000000
     30          0.704593   0.000000
     31          3.097275   0.000000
     32          3.173769   0.000000
 
  0.6666667E-01  0.0000000E+00  0.0000000E+00  0.2666667E-01
      1        -24.426883   1.000000
      2        -24.426165   1.000000
      3        -24.425860   1.000000
      4        -24.425181   1.000000
      5        -24.419732   1.000000
      6        -24.418647   1.000000
      7        -24.416446   1.000000
      8        -24.416229   1.000000
      9        -24.415295   1.000000
     10        -24.415038   1.000000
     11        -14.210573   1.000000
     12        -13.756525   1.000000
     13        -12.094873   1.000000
     14        -10.385323   1.000000
     15         -9.380170   1.000000
     16         -3.544737   1.000000
     17         -3.182248   1.000000
     18         -3.008448   1.000000
     19         -2.949274   1.000000
     20         -2.708774   1.000000
     21         -2.522787   1.000000
     22         -2.218994   1.000000
     23         -2.053152   1.000000
     24         -1.934038   1.000000
     25         -0.606848   0.000000
     26         -0.299610   0.000000
     27         -0.145930   0.000000
     28          0.584818   0.000000
     29          0.775353   0.000000
     30          0.885514   0.000000
     31          3.171905   0.000000
     32          3.200402   0.000000
 
  0.1333333E+00  0.0000000E+00  0.0000000E+00  0.2666667E-01
      1        -24.427610   1.000000
      2        -24.426486   1.000000
      3        -24.424819   1.000000
      4        -24.423837   1.000000
      5        -24.419004   1.000000
      6        -24.417963   1.000000
      7        -24.417059   1.000000
      8        -24.416376   1.000000
      9        -24.415888   1.000000
     10        -24.414979   1.000000
     11        -14.100774   1.000000
     12        -13.654780   1.000000
     13        -12.034750   1.000000
     14        -10.432874   1.000000
     15         -9.548776   1.000000
     16         -4.082599   1.000000
     17         -3.496390   1.000000
     18         -3.279096   1.000000
     19         -3.276740   1.000000
     20         -2.907248   1.000000
     21         -2.870873   1.000000
     22         -2.022878   1.000000
     23         -2.017812   1.000000
     24         -1.881327   1.000000
     25         -0.504823   0.000000
     26          0.026733   0.000000
     27          0.115816   0.000000
     28          0.614730   0.000000
     29          0.966727   0.000000
     30          1.338908   0.000000
     31          3.241734   0.000000
     32          3.352900   0.000000
 
  0.2000000E+00  0.0000000E+00  0.0000000E+00  0.2666667E-01
      1        -24.428857   1.000000
      2        -24.427583   1.000000
      3        -24.422991   1.000000
      4        -24.421995   1.000000
      5        -24.419019   1.000000
      6        -24.417511   1.000000
      7        -24.416955   1.000000
      8        -24.416365   1.000000
      9        -24.415780   1.000000
     10        -24.414819   1.000000
     11        -13.920587   1.000000
     12        -13.489793   1.000000
     13        -11.945839   1.000000
     14        -10.528632   1.000000
     15         -9.815114   1.000000
     16         -4.668591   1.000000
     17         -3.837205   1.000000
     18         -3.741305   1.000000
     19         -3.575359   1.000000
     20         -3.088775   1.000000
     21         -2.931728   1.000000
     22         -2.377392   1.000000
     23         -2.044269   1.000000
     24         -1.819350   1.000000
     25         -0.348370   0.000000
     26          0.218131   0.000000
     27          0.324413   0.000000
     28          1.058037   0.000000
     29          1.228798   0.000000
     30          1.704251   0.000000
     31          3.046589   0.000000
     32          3.538598   0.000000
 
  0.2666667E+00  0.0000000E+00  0.0000000E+00  0.2666667E-01
      1        -24.430476   1.000000
      2        -24.429016   1.000000
      3        -24.421363   1.000000
      4        -24.420233   1.000000
      5        -24.420063   1.000000
      6        -24.418312   1.000000
      7        -24.415775   1.000000
      8        -24.415507   1.000000
      9        -24.414382   1.000000
     10        -24.414277   1.000000
     11        -13.675059   1.000000
     12        -13.270026   1.000000
     13        -11.848539   1.000000
     14        -10.690240   1.000000
     15        -10.147392   1.000000
     16         -5.168773   1.000000
     17         -4.309470   1.000000
     18         -3.948645   1.000000
     19         -3.845343   1.000000
     20         -3.307422   1.000000
     21         -3.015248   1.000000
     22         -2.661225   1.000000
     23         -2.105326   1.000000
     24         -1.955533   1.000000
     25         -0.305572   0.000000
     26          0.360985   0.000000
     27          0.599634   0.000000
     28          1.216738   0.000000
     29          1.501844   0.000000
     30          2.156936   0.000000
     31          2.722217   0.000000
     32          3.766659   0.000000
 
  0.3333333E+00  0.0000000E+00  0.0000000E+00  0.2666667E-01
      1        -24.432165   1.000000
      2        -24.430514   1.000000
      3        -24.421062   1.000000
      4        -24.420594   1.000000
      5        -24.419226   1.000000
      6        -24.419039   1.000000
      7        -24.414427   1.000000
      8        -24.413911   1.000000
      9        -24.413478   1.000000
     10        -24.412652   1.000000
     11        -13.373864   1.000000
     12        -13.012314   1.000000
     13        -11.781424   1.000000
     14        -10.922379   1.000000
     15        -10.488965   1.000000
     16         -5.556731   1.000000
     17         -4.640690   1.000000
     18         -4.126738   1.000000
     19         -4.063148   1.000000
     20         -3.492699   1.000000
     21         -3.288680   1.000000
     22         -2.632213   1.000000
     23         -2.213397   1.000000
     24         -2.177498   1.000000
     25         -0.256187   0.000000
     26          0.438794   0.000000
     27          0.612366   0.000000
     28          1.356733   0.000000
     29          1.730541   0.000000
     30          2.404597   0.000000
     31          2.539913   0.000000
     32          3.921205   0.000000
 
  0.4000000E+00  0.0000000E+00  0.0000000E+00  0.2666667E-01
      1        -24.433558   1.000000
      2        -24.431744   1.000000
      3        -24.421792   1.000000
      4        -24.420442   1.000000
      5        -24.419910   1.000000
      6        -24.418464   1.000000
      7        -24.412981   1.000000
      8        -24.412634   1.000000
      9        -24.412338   1.000000
     10        -24.411347   1.000000
     11        -13.037437   1.000000
     12        -12.754135   1.000000
     13        -11.811559   1.000000
     14        -11.179888   1.000000
     15        -10.763314   1.000000
     16         -5.827706   1.000000
     17         -4.795178   1.000000
     18         -4.337346   1.000000
     19         -4.214633   1.000000
     20         -3.624968   1.000000
     21         -3.440994   1.000000
     22         -2.621673   1.000000
     23         -2.400021   1.000000
     24         -2.237560   1.000000
     25         -0.255647   0.000000
     26          0.470055   0.000000
     27          0.547521   0.000000
     28          1.447550   0.000000
     29          1.883259   0.000000
     30          2.252623   0.000000
     31          2.662489   0.000000
     32          3.940291   0.000000
 
  0.4666667E+00  0.0000000E+00  0.0000000E+00  0.2666667E-01
      1        -24.434343   1.000000
      2        -24.432436   1.000000
      3        -24.422174   1.000000
      4        -24.420458   1.000000
      5        -24.420276   1.000000
      6        -24.418272   1.000000
      7        -24.412115   1.000000
      8        -24.411930   1.000000
      9        -24.411573   1.000000
     10        -24.410629   1.000000
     11        -12.723004   1.000000
     12        -12.596491   1.000000
     13        -11.949218   1.000000
     14        -11.358836   1.000000
     15        -10.903591   1.000000
     16         -5.970445   1.000000
     17         -4.796642   1.000000
     18         -4.537743   1.000000
     19         -4.292093   1.000000
     20         -3.693487   1.000000
     21         -3.467934   1.000000
     22         -2.733454   1.000000
     23         -2.399773   1.000000
     24         -2.270984   1.000000
     25         -0.287494   0.000000
     26          0.478690   0.000000
     27          0.526277   0.000000
     28          1.467809   0.000000
     29          1.956364   0.000000
     30          2.179730   0.000000
     31          2.670288   0.000000
     32          4.008769   0.000000
 
  0.6666667E-01  0.6666667E-01  0.0000000E+00  0.2666667E-01
      1        -24.427270   1.000000
      2        -24.426268   1.000000
      3        -24.425241   1.000000
      4        -24.424386   1.000000
      5        -24.419200   1.000000
      6        -24.418142   1.000000
      7        -24.416901   1.000000
      8        -24.416394   1.000000
      9        -24.415657   1.000000
     10        -24.415021   1.000000
     11        -14.137235   1.000000
     12        -13.688467   1.000000
     13        -12.054214   1.000000
     14        -10.416063   1.000000
     15         -9.493256   1.000000
     16         -3.891788   1.000000
     17         -3.458224   1.000000
     18         -3.214648   1.000000
     19         -3.205027   1.000000
     20         -2.914666   1.000000
     21         -2.597804   1.000000
     22         -2.221948   1.000000
     23         -1.938222   1.000000
     24         -1.864185   1.000000
     25         -0.375623   0.000000
     26         -0.253387   0.000000
     27          0.006846   0.000000
     28          0.760478   0.000000
     29          0.795749   0.000000
     30          1.211759   0.000000
     31          3.249524   0.000000
     32          3.297013   0.000000
 
  0.1333333E+00  0.6666667E-01  0.0000000E+00  0.5333333E-01
      1        -24.428112   1.000000
      2        -24.426993   1.000000
      3        -24.423816   1.000000
      4        -24.423025   1.000000
      5        -24.418571   1.000000
      6        -24.417835   1.000000
      7        -24.416948   1.000000
      8        -24.416438   1.000000
      9        -24.416074   1.000000
     10        -24.414877   1.000000
     11        -13.992174   1.000000
     12        -13.554960   1.000000
     13        -11.979249   1.000000
     14        -10.487403   1.000000
     15         -9.711782   1.000000
     16         -4.402634   1.000000
     17         -3.860791   1.000000
     18         -3.636938   1.000000
     19         -3.373302   1.000000
     20         -3.074003   1.000000
     21         -2.834695   1.000000
     22         -2.292052   1.000000
     23         -1.982442   1.000000
     24         -1.802565   1.000000
     25         -0.281094   0.000000
     26         -0.029806   0.000000
     27          0.299139   0.000000
     28          0.855449   0.000000
     29          1.249044   0.000000
     30          1.526156   0.000000
     31          3.251518   0.000000
     32          3.473315   0.000000
 
  0.2000000E+00  0.6666667E-01  0.0000000E+00  0.5333333E-01
      1        -24.429440   1.000000
      2        -24.428142   1.000000
      3        -24.422231   1.000000
      4        -24.421382   1.000000
      5        -24.419354   1.000000
      6        -24.417966   1.000000
      7        -24.416621   1.000000
      8        -24.415632   1.000000
      9        -24.415382   1.000000
     10        -24.414231   1.000000
     11        -13.779019   1.000000
     12        -13.361968   1.000000
     13        -11.884271   1.000000
     14        -10.615418   1.000000
     15        -10.014758   1.000000
     16         -4.916792   1.000000
     17         -4.271922   1.000000
     18         -3.901679   1.000000
     19         -3.633524   1.000000
     20         -3.399081   1.000000
     21         -2.924643   1.000000
     22         -2.414233   1.000000
     23         -2.169567   1.000000
     24         -1.842707   1.000000
     25         -0.115742   0.000000
     26          0.059015   0.000000
     27          0.551877   0.000000
     28          1.154864   0.000000
     29          1.485406   0.000000
     30          1.954191   0.000000
     31          2.971637   0.000000
     32          3.649550   0.000000
 
  0.2666667E+00  0.6666667E-01  0.0000000E+00  0.5333333E-01
      1        -24.431030   1.000000
      2        -24.429530   1.000000
      3        -24.421157   1.000000
      4        -24.420454   1.000000
      5        -24.419862   1.000000
      6        -24.418677   1.000000
      7        -24.415793   1.000000
      8        -24.414645   1.000000
      9        -24.413957   1.000000
     10        -24.412877   1.000000
     11        -13.504681   1.000000
     12        -13.121179   1.000000
     13        -11.796268   1.000000
     14        -10.813173   1.000000
     15        -10.360053   1.000000
     16         -5.355318   1.000000
     17         -4.572175   1.000000
     18         -4.155108   1.000000
     19         -3.931185   1.000000
     20         -3.594331   1.000000
     21         -3.060025   1.000000
     22         -2.583498   1.000000
     23         -2.276735   1.000000
     24         -1.977866   1.000000
     25         -0.076055   0.000000
     26          0.222769   0.000000
     27          0.613286   0.000000
     28          1.402821   0.000000
     29          1.673180   0.000000
     30          2.326638   0.000000
     31          2.683018   0.000000
     32          3.878176   0.000000
 
  0.3333333E+00  0.6666667E-01  0.0000000E+00  0.5333333E-01
      1        -24.432530   1.000000
      2        -24.430837   1.000000
      3        -24.421261   1.000000
      4        -24.420804   1.000000
      5        -24.419442   1.000000
      6        -24.418970   1.000000
      7        -24.414349   1.000000
      8        -24.413457   1.000000
      9        -24.412650   1.000000
     10        -24.411580   1.000000
     11        -13.182696   1.000000
     12        -12.856629   1.000000
     13        -11.766473   1.000000
     14        -11.067549   1.000000
     15        -10.680112   1.000000
     16         -5.685440   1.000000
     17         -4.741962   1.000000
     18         -4.407190   1.000000
     19         -4.155047   1.000000
     20         -3.681817   1.000000
     21         -3.292404   1.000000
     22         -2.653266   1.000000
     23         -2.316268   1.000000
     24         -2.151557   1.000000
     25         -0.037967   0.000000
     26          0.237333   0.000000
     27          0.624750   0.000000
     28          1.575880   0.000000
     29          1.788357   0.000000
     30          2.418286   0.000000
     31          2.615313   0.000000
     32          3.961049   0.000000
 
  0.4000000E+00  0.6666667E-01  0.0000000E+00  0.5333333E-01
      1        -24.433598   1.000000
      2        -24.431766   1.000000
      3        -24.421789   1.000000
      4        -24.420777   1.000000
      5        -24.419934   1.000000
      6        -24.418633   1.000000
      7        -24.412973   1.000000
      8        -24.412290   1.000000
      9        -24.411903   1.000000
     10        -24.410807   1.000000
     11        -12.845306   1.000000
     12        -12.627871   1.000000
     13        -11.861444   1.000000
     14        -11.300026   1.000000
     15        -10.895340   1.000000
     16         -5.892126   1.000000
     17         -4.794660   1.000000
     18         -4.585789   1.000000
     19         -4.307058   1.000000
     20         -3.753788   1.000000
     21         -3.438445   1.000000
     22         -2.687010   1.000000
     23         -2.333027   1.000000
     24         -2.278828   1.000000
     25         -0.041901   0.000000
     26          0.258566   0.000000
     27          0.573022   0.000000
     28          1.686944   0.000000
     29          1.843043   0.000000
     30          2.311340   0.000000
     31          2.680231   0.000000
     32          4.003249   0.000000
 
  0.4666667E+00  0.6666667E-01  0.0000000E+00  0.2666667E-01
      1        -24.433981   1.000000
      2        -24.432098   1.000000
      3        -24.421968   1.000000
      4        -24.420780   1.000000
      5        -24.420122   1.000000
      6        -24.418547   1.000000
      7        -24.412260   1.000000
      8        -24.411989   1.000000
      9        -24.411606   1.000000
     10        -24.410603   1.000000
     11        -12.607930   1.000000
     12        -12.581810   1.000000
     13        -11.968660   1.000000
     14        -11.400415   1.000000
     15        -10.963703   1.000000
     16         -5.962994   1.000000
     17         -4.790307   1.000000
     18         -4.653936   1.000000
     19         -4.368050   1.000000
     20         -3.797526   1.000000
     21         -3.468712   1.000000
     22         -2.699110   1.000000
     23         -2.372706   1.000000
     24         -2.291045   1.000000
     25         -0.056894   0.000000
     26          0.294512   0.000000
     27          0.526925   0.000000
     28          1.715361   0.000000
     29          1.869644   0.000000
     30          2.283114   0.000000
     31          2.670473   0.000000
     32          4.050927   0.000000
 
  0.1333333E+00  0.1333333E+00  0.0000000E+00  0.2666667E-01
      1        -24.428751   1.000000
      2        -24.427661   1.000000
      3        -24.422665   1.000000
      4        -24.422317   1.000000
      5        -24.418576   1.000000
      6        -24.418461   1.000000
      7        -24.416333   1.000000
      8        -24.416265   1.000000
      9        -24.415505   1.000000
     10        -24.414198   1.000000
     11        -13.813946   1.000000
     12        -13.393035   1.000000
     13        -11.896936   1.000000
     14        -10.590332   1.000000
     15         -9.969658   1.000000
     16         -4.712076   1.000000
     17         -4.434378   1.000000
     18         -3.772499   1.000000
     19         -3.681083   1.000000
     20         -3.338912   1.000000
     21         -2.947536   1.000000
     22         -2.429033   1.000000
     23         -1.938899   1.000000
     24         -1.877177   1.000000
     25         -0.252713   0.000000
     26          0.262571   0.000000
     27          0.520889   0.000000
     28          0.860191   0.000000
     29          1.713451   0.000000
     30          1.795223   0.000000
     31          3.307725   0.000000
     32          3.452070   0.000000
 
  0.2000000E+00  0.1333333E+00  0.0000000E+00  0.5333333E-01
      1        -24.429746   1.000000
      2        -24.428552   1.000000
      3        -24.421847   1.000000
      4        -24.421292   1.000000
      5        -24.419444   1.000000
      6        -24.418571   1.000000
      7        -24.416491   1.000000
      8        -24.415759   1.000000
      9        -24.413940   1.000000
     10        -24.412846   1.000000
     11        -13.571045   1.000000
     12        -13.177088   1.000000
     13        -11.805473   1.000000
     14        -10.753679   1.000000
     15        -10.295607   1.000000
     16         -5.088903   1.000000
     17         -4.770087   1.000000
     18         -4.076278   1.000000
     19         -3.863722   1.000000
     20         -3.681366   1.000000
     21         -3.127196   1.000000
     22         -2.382421   1.000000
     23         -2.200743   1.000000
     24         -1.908612   1.000000
     25         -0.051203   0.000000
     26          0.360126   0.000000
     27          0.504167   0.000000
     28          1.186084   0.000000
     29          1.934944   0.000000
     30          2.138183   0.000000
     31          3.101687   0.000000
     32          3.627879   0.000000
 
  0.2666667E+00  0.1333333E+00  0.0000000E+00  0.5333333E-01
      1        -24.430948   1.000000
      2        -24.429546   1.000000
      3        -24.421611   1.000000
      4        -24.420396   1.000000
      5        -24.420080   1.000000
      6        -24.418764   1.000000
      7        -24.415882   1.000000
      8        -24.414927   1.000000
      9        -24.412615   1.000000
     10        -24.411572   1.000000
     11        -13.272719   1.000000
     12        -12.922689   1.000000
     13        -11.737450   1.000000
     14        -10.980779   1.000000
     15        -10.640557   1.000000
     16         -5.471207   1.000000
     17         -4.880722   1.000000
     18         -4.401186   1.000000
     19         -4.148847   1.000000
     20         -3.811958   1.000000
     21         -3.262081   1.000000
     22         -2.561057   1.000000
     23         -2.309034   1.000000
     24         -1.956169   1.000000
     25          0.018070   0.000000
     26          0.402560   0.000000
     27          0.578617   0.000000
     28          1.427490   0.000000
     29          2.046659   0.000000
     30          2.410722   0.000000
     31          2.867973   0.000000
     32          3.960622   0.000000
 
  0.3333333E+00  0.1333333E+00  0.0000000E+00  0.5333333E-01
      1        -24.432012   1.000000
      2        -24.430395   1.000000
      3        -24.421687   1.000000
      4        -24.420797   1.000000
      5        -24.419694   1.000000
      6        -24.419097   1.000000
      7        -24.414553   1.000000
      8        -24.413676   1.000000
      9        -24.411913   1.000000
     10        -24.410851   1.000000
     11        -12.938180   1.000000
     12        -12.664100   1.000000
     13        -11.756129   1.000000
     14        -11.236832   1.000000
     15        -10.927109   1.000000
     16         -5.737969   1.000000
     17         -4.899579   1.000000
     18         -4.651026   1.000000
     19         -4.381448   1.000000
     20         -3.847839   1.000000
     21         -3.446230   1.000000
     22         -2.699534   1.000000
     23         -2.316729   1.000000
     24         -2.059595   1.000000
     25          0.046271   0.000000
     26          0.387803   0.000000
     27          0.643521   0.000000
     28          1.573535   0.000000
     29          2.084930   0.000000
     30          2.576831   0.000000
     31          2.732437   0.000000
     32          4.074487   0.000000
 
  0.4000000E+00  0.1333333E+00  0.0000000E+00  0.5333333E-01
      1        -24.432624   1.000000
      2        -24.430882   1.000000
      3        -24.421801   1.000000
      4        -24.421042   1.000000
      5        -24.419627   1.000000
      6        -24.419239   1.000000
      7        -24.413273   1.000000
      8        -24.412666   1.000000
      9        -24.411826   1.000000
     10        -24.410770   1.000000
     11        -12.621776   1.000000
     12        -12.498668   1.000000
     13        -11.892743   1.000000
     14        -11.418928   1.000000
     15        -11.074942   1.000000
     16         -5.871549   1.000000
     17         -4.887387   1.000000
     18         -4.809868   1.000000
     19         -4.448158   1.000000
     20         -3.879252   1.000000
     21         -3.614689   1.000000
     22         -2.664054   1.000000
     23         -2.381986   1.000000
     24         -2.135750   1.000000
     25          0.121660   0.000000
     26          0.367915   0.000000
     27          0.575142   0.000000
     28          1.705813   0.000000
     29          2.078047   0.000000
     30          2.599473   0.000000
     31          2.691950   0.000000
     32          4.123757   0.000000
 
  0.2000000E+00  0.2000000E+00  0.0000000E+00  0.2666667E-01
      1        -24.429994   1.000000
      2        -24.428941   1.000000
      3        -24.421961   1.000000
      4        -24.421102   1.000000
      5        -24.419197   1.000000
      6        -24.419026   1.000000
      7        -24.416125   1.000000
      8        -24.416012   1.000000
      9        -24.412603   1.000000
     10        -24.411560   1.000000
     11        -13.303176   1.000000
     12        -12.945436   1.000000
     13        -11.727697   1.000000
     14        -10.946540   1.000000
     15        -10.630772   1.000000
     16         -5.214529   1.000000
     17         -5.164139   1.000000
     18         -4.346073   1.000000
     19         -4.012666   1.000000
     20         -3.984104   1.000000
     21         -3.360398   1.000000
     22         -2.352916   1.000000
     23         -2.282346   1.000000
     24         -1.997648   1.000000
     25          0.141507   0.000000
     26          0.361703   0.000000
     27          0.572911   0.000000
     28          1.438392   0.000000
     29          2.173471   0.000000
     30          2.282453   0.000000
     31          3.443959   0.000000
     32          3.463929   0.000000
 
  0.2666667E+00  0.2000000E+00  0.0000000E+00  0.5333333E-01
      1        -24.430367   1.000000
      2        -24.429247   1.000000
      3        -24.422487   1.000000
      4        -24.420776   1.000000
      5        -24.419499   1.000000
      6        -24.418611   1.000000
      7        -24.415833   1.000000
      8        -24.415202   1.000000
      9        -24.411910   1.000000
     10        -24.410851   1.000000
     11        -12.987501   1.000000
     12        -12.686735   1.000000
     13        -11.684522   1.000000
     14        -11.187242   1.000000
     15        -10.969562   1.000000
     16         -5.516746   1.000000
     17         -5.219626   1.000000
     18         -4.485865   1.000000
     19         -4.396262   1.000000
     20         -4.087375   1.000000
     21         -3.481360   1.000000
     22         -2.527311   1.000000
     23         -2.333507   1.000000
     24         -2.012215   1.000000
     25          0.176468   0.000000
     26          0.485512   0.000000
     27          0.614278   0.000000
     28          1.663539   0.000000
     29          2.260666   0.000000
     30          2.454104   0.000000
     31          3.279503   0.000000
     32          4.017995   0.000000
 
  0.3333333E+00  0.2000000E+00  0.0000000E+00  0.5333333E-01
      1        -24.430752   1.000000
      2        -24.429406   1.000000
      3        -24.422982   1.000000
      4        -24.420614   1.000000
      5        -24.419742   1.000000
      6        -24.418455   1.000000
      7        -24.414855   1.000000
      8        -24.414059   1.000000
      9        -24.411899   1.000000
     10        -24.410859   1.000000
     11        -12.651897   1.000000
     12        -12.450063   1.000000
     13        -11.751653   1.000000
     14        -11.421213   1.000000
     15        -11.217552   1.000000
     16         -5.710899   1.000000
     17         -5.202067   1.000000
     18         -4.752482   1.000000
     19         -4.491864   1.000000
     20         -4.076963   1.000000
     21         -3.667815   1.000000
     22         -2.638944   1.000000
     23         -2.317526   1.000000
     24         -2.088654   1.000000
     25          0.208379   0.000000
     26          0.475273   0.000000
     27          0.710309   0.000000
     28          1.789443   0.000000
     29          2.263494   0.000000
     30          2.621647   0.000000
     31          3.161992   0.000000
     32          4.297956   0.000000
 
  0.4000000E+00  0.2000000E+00  0.0000000E+00  0.2666667E-01
      1        -24.430910   1.000000
      2        -24.429448   1.000000
      3        -24.423180   1.000000
      4        -24.420575   1.000000
      5        -24.419828   1.000000
      6        -24.418455   1.000000
      7        -24.414034   1.000000
      8        -24.413606   1.000000
      9        -24.412014   1.000000
     10        -24.411150   1.000000
     11        -12.401792   1.000000
     12        -12.393871   1.000000
     13        -11.867848   1.000000
     14        -11.527747   1.000000
     15        -11.293455   1.000000
     16         -5.776198   1.000000
     17         -5.144251   1.000000
     18         -4.935146   1.000000
     19         -4.478823   1.000000
     20         -3.947284   1.000000
     21         -3.880781   1.000000
     22         -2.648826   1.000000
     23         -2.276633   1.000000
     24         -2.170252   1.000000
     25          0.295674   0.000000
     26          0.381611   0.000000
     27          0.743971   0.000000
     28          1.877881   0.000000