 vasp.6.4.1 05Apr23 (build Jun 23 2023 20:15:43) complex                        
  
 executed on             LinuxIFC date 2024.10.17  14:20:46
 running   16 mpi-ranks, with    1 threads/rank, on    1 nodes
 distrk:  each k-point on   16 cores,    1 groups
 distr:  one band on NCORE=   1 cores,   16 groups


--------------------------------------------------------------------------------------------------------


 INCAR:
   SYSTEM = SCF
   ICHARG = 2
   EFERMI = MIDGAP
   ENCUT = 450
   EDIFF = 1e-8
   EDIFFG = -1e-2
   PREC = Accurate
   ADDGRID = .TRUE.
   LREAL = .FALSE.
   ISMEAR = 0
   SIGMA = 0.05
   NELMIN = 6
   NELM = 60
   LORBIT = 11
   NEDOS = 2001
   ISTART = 0

 POTCAR:    PAW_PBE Bi_d 06Sep2000                
 POTCAR:    PAW_PBE Te 08Apr2002                  
 POTCAR:    PAW_PBE Bi_d 06Sep2000                
   VRHFIN =Bi:                                                                                      
   LEXCH  = PE                                                                                      
   EATOM  =  1959.2045 eV,  143.9975 Ry                                                             
                                                                                                    
   TITEL  = PAW_PBE Bi_d 06Sep2000                                                                  
   LULTRA =        F    use ultrasoft PP ?                                                          
   IUNSCR =        1    unscreen: 0-lin 1-nonlin 2-no                                               
   RPACOR =    2.200    partial core radius                                                         
   POMASS =  208.980; ZVAL   =   15.000    mass and valenz                                          
   RCORE  =    2.500    outmost cutoff radius                                                       
   RWIGS  =    3.090; RWIGS  =    1.635    wigner-seitz radius (au A)                               
   ENMAX  =  242.839; ENMIN  =  182.129 eV                                                          
   ICORE  =        3    local potential                                                             
   LCOR   =        T    correct aug charges                                                         
   LPAW   =        T    paw PP                                                                      
   EAUG   =  442.899                                                                                
   DEXC   =    0.000                                                                                
   RMAX   =    2.551    core radius for proj-oper                                                   
   RAUG   =    1.300    factor for augmentation sphere                                              
   RDEP   =    2.650    radius for radial grids                                                     
   RDEPT  =    2.039    core radius for aug-charge                                                  
                                                                                                    
   Atomic configuration                                                                             
   16 entries                                                                                       
     n  l   j            E        occ.                                                              
     1  0  0.50    -90639.6581   2.0000                                                             
     2  0  0.50    -16282.4666   2.0000                                                             
     2  1  1.50    -13922.8286   6.0000                                                             
     3  0  0.50     -3930.4763   2.0000                                                             
     3  1  1.50     -3256.7013   6.0000                                                             
     3  2  2.50     -2581.6168  10.0000                                                             
     4  0  0.50      -902.2614   2.0000                                                             
     4  1  1.50      -681.5915   6.0000                                                             
     4  2  2.50      -429.8249  10.0000                                                             
     4  3  3.50      -152.6004  14.0000                                                             
     5  0  0.50      -157.7156   2.0000                                                             
     5  1  1.50       -95.8054   6.0000                                                             
     5  2  2.50       -27.0806  10.0000                                                             
     6  0  0.50       -14.4732   2.0000                                                             
     6  1  1.50        -4.5702   3.0000                                                             
     5  3  2.50        -2.7212   0.0000                                                             
   Description                                                                                      
     l       E           TYP  RCUT    TYP  RCUT                                                     
     2    -27.0805982     23  2.500                                                                 
     2     -1.3605826     23  2.500                                                                 
     0    -14.4732271     23  2.500                                                                 
     0      6.8029130     23  2.500                                                                 
     1     -4.5701651     23  2.500                                                                 
     1     13.6058260     23  2.500                                                                 
     3     -1.3605826      7  2.500                                                                 
  local pseudopotential read in
  partial core-charges read in
  partial kinetic energy density read in
  atomic valenz-charges read in
  non local Contribution for L=           2  read in
    real space projection operators read in
  non local Contribution for L=           2  read in
    real space projection operators read in
  non local Contribution for L=           0  read in
    real space projection operators read in
  non local Contribution for L=           0  read in
    real space projection operators read in
  non local Contribution for L=           1  read in
    real space projection operators read in
  non local Contribution for L=           1  read in
    real space projection operators read in
    PAW grid and wavefunctions read in
 
   number of l-projection  operators is LMAX  =           6
   number of lm-projection operators is LMMAX =          18
 
 POTCAR:    PAW_PBE Te 08Apr2002                  
   VRHFIN =Te: s2p4                                                                                 
   LEXCH  = PE                                                                                      
   EATOM  =   223.2721 eV,   16.4100 Ry                                                             
                                                                                                    
   TITEL  = PAW_PBE Te 08Apr2002                                                                    
   LULTRA =        F    use ultrasoft PP ?                                                          
   IUNSCR =        1    unscreen: 0-lin 1-nonlin 2-no                                               
   RPACOR =    2.200    partial core radius                                                         
   POMASS =  127.600; ZVAL   =    6.000    mass and valenz                                          
   RCORE  =    2.300    outmost cutoff radius                                                       
   RWIGS  =    2.900; RWIGS  =    1.535    wigner-seitz radius (au A)                               
   ENMAX  =  174.982; ENMIN  =  131.236 eV                                                          
   ICORE  =        3    local potential                                                             
   LCOR   =        T    correct aug charges                                                         
   LPAW   =        T    paw PP                                                                      
   EAUG   =  368.792                                                                                
   DEXC   =    0.000                                                                                
   RMAX   =    2.345    core radius for proj-oper                                                   
   RAUG   =    1.300    factor for augmentation sphere                                              
   RDEP   =    2.397    radius for radial grids                                                     
   RDEPT  =    2.174    core radius for aug-charge                                                  
                                                                                                    
   Atomic configuration                                                                             
   13 entries                                                                                       
     n  l   j            E        occ.                                                              
     1  0  0.50    -31621.2075   2.0000                                                             
     2  0  0.50     -4848.7941   2.0000                                                             
     2  1  1.50     -4352.1960   6.0000                                                             
     3  0  0.50      -964.9612   2.0000                                                             
     3  1  1.50      -803.6179   6.0000                                                             
     3  2  2.50      -559.8710  10.0000                                                             
     4  0  0.50      -164.3522   2.0000                                                             
     4  1  1.50      -114.3756   6.0000                                                             
     4  2  2.50       -41.6483  10.0000                                                             
     5  0  0.50       -15.1072   2.0000                                                             
     5  1  0.50        -5.9526   4.0000                                                             
     5  2  1.50        -5.4423   0.0000                                                             
     4  3  2.50        -5.4423   0.0000                                                             
   Description                                                                                      
     l       E           TYP  RCUT    TYP  RCUT                                                     
     0    -15.1072389     23  2.300                                                                 
     0    -16.4678215     23  2.300                                                                 
     1     -5.9526306     23  2.300                                                                 
     1     -2.4873968     23  2.300                                                                 
     2     -5.4423304     23  2.300                                                                 
     3     -1.3605826     23  2.300                                                                 
  local pseudopotential read in
  partial core-charges read in
  partial kinetic energy density read in
  atomic valenz-charges read in
  non local Contribution for L=           0  read in
    real space projection operators read in
  non local Contribution for L=           0  read in
    real space projection operators read in
  non local Contribution for L=           1  read in
    real space projection operators read in
  non local Contribution for L=           1  read in
    real space projection operators read in
  non local Contribution for L=           2  read in
    real space projection operators read in
    PAW grid and wavefunctions read in
 
   number of l-projection  operators is LMAX  =           5
   number of lm-projection operators is LMMAX =          13
 
  PAW_PBE Bi_d 06Sep2000                :
 energy of atom  1       EATOM=-1959.2045
 kinetic energy error for atom=    0.0063 (will be added to EATOM!!)
  PAW_PBE Te 08Apr2002                  :
 energy of atom  2       EATOM= -223.2721
 kinetic energy error for atom=    0.0008 (will be added to EATOM!!)
 
 
 POSCAR: "Bi2 Te3"
  positions in direct lattice
  No initial velocities read in
 exchange correlation table for  LEXCH =        8
   RHO(1)=    0.500       N(1)  =     2000
   RHO(2)=  100.500       N(2)  =     4000
 


--------------------------------------------------------------------------------------------------------


 ion  position               nearest neighbor table
   1  0.333  0.667  0.431-   3 3.08   3 3.08   3 3.08   4 3.29   4 3.29   4 3.29
   2  0.667  0.333  0.569-   5 3.08   5 3.08   5 3.08   4 3.29   4 3.29   4 3.29
   3  0.667  0.333  0.374-   1 3.08   1 3.08   1 3.08
   4  0.000  0.000  0.500-   2 3.29   1 3.29   2 3.29   1 3.29   1 3.29   2 3.29
   5  0.333  0.667  0.626-   2 3.08   2 3.08   2 3.08
 
  LATTYP: Found a hexagonal cell.
 ALAT       =     4.4295974345
 C/A-ratio  =     6.7726244752
  
  Lattice vectors:
  
 A1 = (   4.4295974345,   0.0000000000,   0.0000000000)
 A2 = (  -2.2147987173,   3.8361439068,   0.0000000000)
 A3 = (   0.0000000000,   0.0000000000,  30.0000000000)


Analysis of symmetry for initial positions (statically):
=====================================================================
 Subroutine PRICEL returns:
 Original cell was already a primitive cell.
 

 Routine SETGRP: Setting up the symmetry group for a 
 hexagonal supercell.


 Subroutine GETGRP returns: Found 12 space group operations
 (whereof 12 operations were pure point group operations)
 out of a pool of 24 trial point group operations.


The static configuration has the point symmetry D_3d.


Analysis of symmetry for dynamics (positions and initial velocities):
=====================================================================
 Subroutine PRICEL returns:
 Original cell was already a primitive cell.
 

 Routine SETGRP: Setting up the symmetry group for a 
 hexagonal supercell.


 Subroutine GETGRP returns: Found 12 space group operations
 (whereof 12 operations were pure point group operations)
 out of a pool of 24 trial point group operations.


The dynamic configuration has the point symmetry D_3d.


 Subroutine INISYM returns: Found 12 space group operations
 (whereof 12 operations are pure point group operations),
 and found     1 'primitive' translations


----------------------------------------------------------------------------------------

                                     Primitive cell                                     

  volume of cell :     509.7772

  direct lattice vectors                    reciprocal lattice vectors
     4.429597435  0.000000000  0.000000000     0.225754149  0.130339219  0.000000000
    -2.214798717  3.836143907  0.000000000     0.000000000  0.260678438  0.000000000
     0.000000000  0.000000000 30.000000000     0.000000000  0.000000000  0.033333333

  length of vectors
     4.429597435  4.429597435 30.000000000     0.260678438  0.260678438  0.033333333

  position of ions in fractional coordinates (direct lattice)
     0.333333333  0.666666667  0.431161421
     0.666666667  0.333333333  0.568838579
     0.666666667  0.333333333  0.373855768
     0.000000000  0.000000000  0.500000000
     0.333333333  0.666666667  0.626144232

  ion indices of the primitive-cell ions
   primitive index   ion index
                 1           1
                 2           2
                 3           3
                 4           4
                 5           5

----------------------------------------------------------------------------------------

 
 
 KPOINTS: 0.020  15  15   1   27  0.040   54    3 

Read explicit list of k-points.

 Found     81 k-points:

 Following reciprocal coordinates:
            Coordinates               Weight
  0.000000  0.000000  0.000000      0.004444
  0.066667  0.000000  0.000000      0.026667
  0.133333  0.000000  0.000000      0.026667
  0.200000  0.000000  0.000000      0.026667
  0.266667  0.000000  0.000000      0.026667
  0.333333  0.000000  0.000000      0.026667
  0.400000  0.000000  0.000000      0.026667
  0.466667  0.000000  0.000000      0.026667
  0.066667  0.066667  0.000000      0.026667
  0.133333  0.066667  0.000000      0.053333
  0.200000  0.066667  0.000000      0.053333
  0.266667  0.066667  0.000000      0.053333
  0.333333  0.066667  0.000000      0.053333
  0.400000  0.066667  0.000000      0.053333
  0.466667  0.066667  0.000000      0.026667
  0.133333  0.133333  0.000000      0.026667
  0.200000  0.133333  0.000000      0.053333
  0.266667  0.133333  0.000000      0.053333
  0.333333  0.133333  0.000000      0.053333
  0.400000  0.133333  0.000000      0.053333
  0.200000  0.200000  0.000000      0.026667
  0.266667  0.200000  0.000000      0.053333
  0.333333  0.200000  0.000000      0.053333
  0.400000  0.200000  0.000000      0.026667
  0.266667  0.266667  0.000000      0.026667
  0.333333  0.266667  0.000000      0.053333
  0.333333  0.333333  0.000000      0.008889
  0.000000  0.000000  0.000000      0.000000
  0.026316  0.000000  0.000000      0.000000
  0.052632  0.000000  0.000000      0.000000
  0.078947  0.000000  0.000000      0.000000
  0.105263  0.000000  0.000000      0.000000
  0.131579  0.000000  0.000000      0.000000
  0.157895  0.000000  0.000000      0.000000
  0.184211  0.000000  0.000000      0.000000
  0.210526  0.000000  0.000000      0.000000
  0.236842  0.000000  0.000000      0.000000
  0.263158  0.000000  0.000000      0.000000
  0.289474  0.000000  0.000000      0.000000
  0.315789  0.000000  0.000000      0.000000
  0.342105  0.000000  0.000000      0.000000
  0.368421  0.000000  0.000000      0.000000
  0.394737  0.000000  0.000000      0.000000
  0.421053  0.000000  0.000000      0.000000
  0.447368  0.000000  0.000000      0.000000
  0.473684  0.000000  0.000000      0.000000
  0.500000  0.000000  0.000000      0.000000
  0.500000  0.000000  0.000000      0.000000
  0.483333  0.033333  0.000000      0.000000
  0.466667  0.066667  0.000000      0.000000
  0.450000  0.100000  0.000000      0.000000
  0.433333  0.133333  0.000000      0.000000
  0.416667  0.166667  0.000000      0.000000
  0.400000  0.200000  0.000000      0.000000
  0.383333  0.233333  0.000000      0.000000
  0.366667  0.266667  0.000000      0.000000
  0.350000  0.300000  0.000000      0.000000
  0.333333  0.333333  0.000000      0.000000
  0.333333  0.333333  0.000000      0.000000
  0.318182  0.318182  0.000000      0.000000
  0.303030  0.303030  0.000000      0.000000
  0.287879  0.287879  0.000000      0.000000
  0.272727  0.272727  0.000000      0.000000
  0.257576  0.257576  0.000000      0.000000
  0.242424  0.242424  0.000000      0.000000
  0.227273  0.227273  0.000000      0.000000
  0.212121  0.212121  0.000000      0.000000
  0.196970  0.196970  0.000000      0.000000
  0.181818  0.181818  0.000000      0.000000
  0.166667  0.166667  0.000000      0.000000
  0.151515  0.151515  0.000000      0.000000
  0.136364  0.136364  0.000000      0.000000
  0.121212  0.121212  0.000000      0.000000
  0.106061  0.106061  0.000000      0.000000
  0.090909  0.090909  0.000000      0.000000
  0.075758  0.075758  0.000000      0.000000
  0.060606  0.060606  0.000000      0.000000
  0.045455  0.045455  0.000000      0.000000
  0.030303  0.030303  0.000000      0.000000
  0.015152  0.015152  0.000000      0.000000
  0.000000  0.000000  0.000000      0.000000

 Following cartesian coordinates:
            Coordinates               Weight
  0.000000  0.000000  0.000000      0.004444
  0.015050  0.008689  0.000000      0.026667
  0.030101  0.017379  0.000000      0.026667
  0.045151  0.026068  0.000000      0.026667
  0.060201  0.034757  0.000000      0.026667
  0.075251  0.043446  0.000000      0.026667
  0.090302  0.052136  0.000000      0.026667
  0.105352  0.060825  0.000000      0.026667
  0.015050  0.026068  0.000000      0.026667
  0.030101  0.034757  0.000000      0.053333
  0.045151  0.043446  0.000000      0.053333
  0.060201  0.052136  0.000000      0.053333
  0.075251  0.060825  0.000000      0.053333
  0.090302  0.069514  0.000000      0.053333
  0.105352  0.078204  0.000000      0.026667
  0.030101  0.052136  0.000000      0.026667
  0.045151  0.060825  0.000000      0.053333
  0.060201  0.069514  0.000000      0.053333
  0.075251  0.078204  0.000000      0.053333
  0.090302  0.086893  0.000000      0.053333
  0.045151  0.078204  0.000000      0.026667
  0.060201  0.086893  0.000000      0.053333
  0.075251  0.095582  0.000000      0.053333
  0.090302  0.104271  0.000000      0.026667
  0.060201  0.104271  0.000000      0.026667
  0.075251  0.112961  0.000000      0.053333
  0.075251  0.130339  0.000000      0.008889
  0.000000  0.000000  0.000000      0.000000
  0.005941  0.003430  0.000000      0.000000
  0.011882  0.006860  0.000000      0.000000
  0.017823  0.010290  0.000000      0.000000
  0.023764  0.013720  0.000000      0.000000
  0.029704  0.017150  0.000000      0.000000
  0.035645  0.020580  0.000000      0.000000
  0.041586  0.024010  0.000000      0.000000
  0.047527  0.027440  0.000000      0.000000
  0.053468  0.030870  0.000000      0.000000
  0.059409  0.034300  0.000000      0.000000
  0.065350  0.037730  0.000000      0.000000
  0.071291  0.041160  0.000000      0.000000
  0.077232  0.044590  0.000000      0.000000
  0.083173  0.048020  0.000000      0.000000
  0.089113  0.051450  0.000000      0.000000
  0.095054  0.054880  0.000000      0.000000
  0.100995  0.058310  0.000000      0.000000
  0.106936  0.061740  0.000000      0.000000
  0.112877  0.065170  0.000000      0.000000
  0.112877  0.065170  0.000000      0.000000
  0.109115  0.071687  0.000000      0.000000
  0.105352  0.078204  0.000000      0.000000
  0.101589  0.084720  0.000000      0.000000
  0.097827  0.091237  0.000000      0.000000
  0.094064  0.097754  0.000000      0.000000
  0.090302  0.104271  0.000000      0.000000
  0.086539  0.110788  0.000000      0.000000
  0.082777  0.117305  0.000000      0.000000
  0.079014  0.123822  0.000000      0.000000
  0.075251  0.130339  0.000000      0.000000
  0.075251  0.130339  0.000000      0.000000
  0.071831  0.124415  0.000000      0.000000
  0.068410  0.118490  0.000000      0.000000
  0.064990  0.112566  0.000000      0.000000
  0.061569  0.106641  0.000000      0.000000
  0.058149  0.100717  0.000000      0.000000
  0.054728  0.094792  0.000000      0.000000
  0.051308  0.088868  0.000000      0.000000
  0.047887  0.082943  0.000000      0.000000
  0.044467  0.077019  0.000000      0.000000
  0.041046  0.071094  0.000000      0.000000
  0.037626  0.065170  0.000000      0.000000
  0.034205  0.059245  0.000000      0.000000
  0.030785  0.053321  0.000000      0.000000
  0.027364  0.047396  0.000000      0.000000
  0.023944  0.041472  0.000000      0.000000
  0.020523  0.035547  0.000000      0.000000
  0.017103  0.029623  0.000000      0.000000
  0.013682  0.023698  0.000000      0.000000
  0.010262  0.017774  0.000000      0.000000
  0.006841  0.011849  0.000000      0.000000
  0.003421  0.005925  0.000000      0.000000
  0.000000  0.000000  0.000000      0.000000
 


--------------------------------------------------------------------------------------------------------




 Dimension of arrays:
   k-points           NKPTS =     81   k-points in BZ     NKDIM =     81   number of bands    NBANDS=     32
   number of dos      NEDOS =   2001   number of ions     NIONS =      5
   non local maximal  LDIM  =      6   non local SUM 2l+1 LMDIM =     18
   total plane-waves  NPLWV = 215040
   max r-space proj   IRMAX =      1   max aug-charges    IRDMAX= 196456
   dimension x,y,z NGX =    32 NGY =   32 NGZ =  210
   dimension x,y,z NGXF=    64 NGYF=   64 NGZF=  420
   support grid    NGXF=   128 NGYF=  128 NGZF=  840
   ions per type =               2   3
   NGX,Y,Z   is equivalent  to a cutoff of  12.01, 12.01, 11.64 a.u.
   NGXF,Y,Z  is equivalent  to a cutoff of  24.02, 24.02, 23.27 a.u.

 SYSTEM =  SCF                                     
 POSCAR =  "Bi2 Te3"                               

 Startparameter for this run:
   NWRITE =      2    write-flag & timer
   PREC   = accura    normal or accurate (medium, high low for compatibility)
   ISTART =      0    job   : 0-new  1-cont  2-samecut
   ICHARG =      2    charge: 1-file 2-atom 10-const
   ISPIN  =      1    spin polarized calculation?
   LNONCOLLINEAR =      F non collinear calculations
   LSORBIT =      F    spin-orbit coupling
   INIWAV =      1    electr: 0-lowe 1-rand  2-diag
   LASPH  =      F    aspherical Exc in radial PAW
 Electronic Relaxation 1
   ENCUT  =  450.0 eV  33.07 Ry    5.75 a.u.   7.66  7.66 51.89*2*pi/ulx,y,z
   ENINI  =  450.0     initial cutoff
   ENAUG  =  442.9 eV  augmentation charge cutoff
   NELM   =     60;   NELMIN=  6; NELMDL= -5     # of ELM steps 
   EDIFF  = 0.1E-07   stopping-criterion for ELM
   LREAL  =      F    real-space projection
   NLSPLINE    = F    spline interpolate recip. space projectors
   LCOMPAT=      F    compatible to vasp.4.4
   GGA_COMPAT  = T    GGA compatible to vasp.4.4-vasp.4.6
   LMAXPAW     = -100 max onsite density
   LMAXMIX     =    2 max onsite mixed and CHGCAR
   VOSKOWN=      0    Vosko Wilk Nusair interpolation
   ROPT   =    0.00000   0.00000
 Ionic relaxation
   EDIFFG = -.1E-01   stopping-criterion for IOM
   NSW    =      0    number of steps for IOM
   NBLOCK =      1;   KBLOCK =      1    inner block; outer block 
   IBRION =     -1    ionic relax: 0-MD 1-quasi-New 2-CG
   NFREE  =      0    steps in history (QN), initial steepest desc. (CG)
   ISIF   =      2    stress and relaxation
   IWAVPR =     10    prediction:  0-non 1-charg 2-wave 3-comb
   ISYM   =      2    0-nonsym 1-usesym 2-fastsym
   LCORR  =      T    Harris-Foulkes like correction to forces

   POTIM  = 0.5000    time-step for ionic-motion
   TEIN   =    0.0    initial temperature
   TEBEG  =    0.0;   TEEND  =   0.0 temperature during run
   SMASS  =  -3.00    Nose mass-parameter (am)
   estimated Nose-frequenzy (Omega)   =  0.10E-29 period in steps = 0.13E+47 mass=  -0.448E-27a.u.
   SCALEE = 1.0000    scale energy and forces
   NPACO  =    256;   APACO  = 10.0  distance and # of slots for P.C.
   PSTRESS=    0.0 pullay stress

  Mass of Ions in am
   POMASS = 208.98127.60
  Ionic Valenz
   ZVAL   =  15.00  6.00
  Atomic Wigner-Seitz radii
   RWIGS  =  -1.00 -1.00
  virtual crystal weights 
   VCA    =   1.00  1.00
   NELECT =      48.0000    total number of electrons
   NUPDOWN=      -1.0000    fix difference up-down

 DOS related values:
   EMIN   =  10.00;   EMAX   =-10.00  energy-range for DOS
   EFERMI =   0.00;   METHOD = MIDGAP      
   ISMEAR =     0;   SIGMA  =   0.05  broadening in eV -4-tet -1-fermi 0-gaus

 Electronic relaxation 2 (details)
   IALGO  =     38    algorithm
   LDIAG  =      T    sub-space diagonalisation (order eigenvalues)
   LSUBROT=      F    optimize rotation matrix (better conditioning)
   TURBO    =      0    0=normal 1=particle mesh
   IRESTART =      0    0=no restart 2=restart with 2 vectors
   NREBOOT  =      0    no. of reboots
   NMIN     =      0    reboot dimension
   EREF     =   0.00    reference energy to select bands
   IMIX   =      4    mixing-type and parameters
     AMIX     =   0.40;   BMIX     =  1.00
     AMIX_MAG =   1.60;   BMIX_MAG =  1.00
     AMIN     =   0.10
     WC   =   100.;   INIMIX=   1;  MIXPRE=   1;  MAXMIX= -45

 Intra band minimization:
   WEIMIN = 0.0000     energy-eigenvalue tresh-hold
   EBREAK =  0.78E-10  absolut break condition
   DEPER  =   0.30     relativ break condition  

   TIME   =   0.40     timestep for ELM

  volume/ion in A,a.u.               =     101.96       688.03
  Fermi-wavevector in a.u.,A,eV,Ry     =   0.744781  1.407432  7.547129  0.554698
  Thomas-Fermi vector in A             =   1.840213
 
 Write flags
   LWAVE        =      T    write WAVECAR
   LDOWNSAMPLE  =      F    k-point downsampling of WAVECAR
   LCHARG       =      T    write CHGCAR
   LVTOT        =      F    write LOCPOT, total local potential
   LVHAR        =      F    write LOCPOT, Hartree potential only
   LELF         =      F    write electronic localiz. function (ELF)
   LORBIT       =     11    0 simple, 1 ext, 2 COOP (PROOUT), +10 PAW based schemes


 Dipole corrections
   LMONO  =      F    monopole corrections only (constant potential shift)
   LDIPOL =      F    correct potential (dipole corrections)
   IDIPOL =      0    1-x, 2-y, 3-z, 4-all directions 
   EPSILON=  1.0000000 bulk dielectric constant

 Exchange correlation treatment:
   GGA     =    --    GGA type
   LEXCH   =     8    internal setting for exchange type
   LIBXC   =     F    Libxc                    
   VOSKOWN =     0    Vosko Wilk Nusair interpolation
   LHFCALC =     F    Hartree Fock is set to
   LHFONE  =     F    Hartree Fock one center treatment
   AEXX    =    0.0000 exact exchange contribution

 Linear response parameters
   LEPSILON=     F    determine dielectric tensor
   LRPA    =     F    only Hartree local field effects (RPA)
   LNABLA  =     F    use nabla operator in PAW spheres
   LVEL    =     F    velocity operator in full k-point grid
   CSHIFT  =0.1000    complex shift for real part using Kramers Kronig
   OMEGAMAX=  -1.0    maximum frequency
   DEG_THRESHOLD= 0.2000000E-02 threshold for treating states as degnerate
   RTIME   =   -0.100 relaxation time in fs
  (WPLASMAI=    0.000 imaginary part of plasma frequency in eV, 0.658/RTIME)
   DFIELD  = 0.0000000 0.0000000 0.0000000 field for delta impulse in time
 
  Optional k-point grid parameters
   LKPOINTS_OPT  =     F    use optional k-point grid
   KPOINTS_OPT_MODE=     1    mode for optional k-point grid
 
 Orbital magnetization related:
   ORBITALMAG=     F  switch on orbital magnetization
   LCHIMAG   =     F  perturbation theory with respect to B field
   DQ        =  0.001000  dq finite difference perturbation B field
   LLRAUG    =     F  two centre corrections for induced B field
   LBONE     =     F  B-component reconstruction in AE one-centre
   LVGVCALC  =     T  calculate vGv susceptibility
   LVGVAPPL  =     F  apply vGv susceptibility instead of pGv for G=0

 Random number generation:
   RANDOM_GENERATOR = DEFAULT
   PCG_SEED         = not used


--------------------------------------------------------------------------------------------------------


 Static calculation
 charge density and potential will be updated during run
 non-spin polarized calculation
 Variant of blocked Davidson
 Davidson routine will perform the subspace rotation
 perform sub-space diagonalisation
    after iterative eigenvector-optimisation
 modified Broyden-mixing scheme, WC =      100.0
 initial mixing is a Kerker type mixing with AMIX =  0.4000 and BMIX =      1.0000
 Hartree-type preconditioning will be used
 using additional bands            8
 reciprocal scheme for non local part
 use partial core corrections
 calculate Harris-corrections to forces 
   (improved forces if not selfconsistent)
 use gradient corrections 
 use of overlap-Matrix (Vanderbilt PP)
 Gauss-broadening in eV      SIGMA  =   0.05


--------------------------------------------------------------------------------------------------------


  energy-cutoff  :      450.00
  volume of cell :      509.78
      direct lattice vectors                 reciprocal lattice vectors
     4.429597435  0.000000000  0.000000000     0.225754149  0.130339219  0.000000000
    -2.214798717  3.836143907  0.000000000     0.000000000  0.260678438  0.000000000
     0.000000000  0.000000000 30.000000000     0.000000000  0.000000000  0.033333333

  length of vectors
     4.429597435  4.429597435 30.000000000     0.260678438  0.260678438  0.033333333


 
 k-points in units of 2pi/SCALE and weight: 0.020  15  15   1   27  0.040   54    3 
   0.00000000  0.00000000  0.00000000       0.004
   0.01505028  0.00868928  0.00000000       0.027
   0.03010055  0.01737856  0.00000000       0.027
   0.04515083  0.02606784  0.00000000       0.027
   0.06020111  0.03475713  0.00000000       0.027
   0.07525138  0.04344641  0.00000000       0.027
   0.09030166  0.05213569  0.00000000       0.027
   0.10535194  0.06082497  0.00000000       0.027
   0.01505028  0.02606784  0.00000000       0.027
   0.03010055  0.03475713  0.00000000       0.053
   0.04515083  0.04344641  0.00000000       0.053
   0.06020111  0.05213569  0.00000000       0.053
   0.07525138  0.06082497  0.00000000       0.053
   0.09030166  0.06951425  0.00000000       0.053
   0.10535194  0.07820353  0.00000000       0.027
   0.03010055  0.05213569  0.00000000       0.027
   0.04515083  0.06082497  0.00000000       0.053
   0.06020111  0.06951425  0.00000000       0.053
   0.07525138  0.07820353  0.00000000       0.053
   0.09030166  0.08689281  0.00000000       0.053
   0.04515083  0.07820353  0.00000000       0.027
   0.06020111  0.08689281  0.00000000       0.053
   0.07525138  0.09558209  0.00000000       0.053
   0.09030166  0.10427138  0.00000000       0.027
   0.06020111  0.10427138  0.00000000       0.027
   0.07525138  0.11296066  0.00000000       0.053
   0.07525138  0.13033922  0.00000000       0.009
   0.00000000  0.00000000  0.00000000       0.000
   0.00594090  0.00342998  0.00000000       0.000
   0.01188180  0.00685996  0.00000000       0.000
   0.01782270  0.01028994  0.00000000       0.000
   0.02376359  0.01371992  0.00000000       0.000
   0.02970449  0.01714990  0.00000000       0.000
   0.03564539  0.02057988  0.00000000       0.000
   0.04158629  0.02400986  0.00000000       0.000
   0.04752719  0.02743984  0.00000000       0.000
   0.05346809  0.03086981  0.00000000       0.000
   0.05940899  0.03429979  0.00000000       0.000
   0.06534989  0.03772977  0.00000000       0.000
   0.07129078  0.04115975  0.00000000       0.000
   0.07723168  0.04458973  0.00000000       0.000
   0.08317258  0.04801971  0.00000000       0.000
   0.08911348  0.05144969  0.00000000       0.000
   0.09505438  0.05487967  0.00000000       0.000
   0.10099528  0.05830965  0.00000000       0.000
   0.10693618  0.06173963  0.00000000       0.000
   0.11287707  0.06516961  0.00000000       0.000
   0.11287707  0.06516961  0.00000000       0.000
   0.10911451  0.07168657  0.00000000       0.000
   0.10535194  0.07820353  0.00000000       0.000
   0.10158937  0.08472049  0.00000000       0.000
   0.09782680  0.09123745  0.00000000       0.000
   0.09406423  0.09775441  0.00000000       0.000
   0.09030166  0.10427138  0.00000000       0.000
   0.08653909  0.11078834  0.00000000       0.000
   0.08277652  0.11730530  0.00000000       0.000
   0.07901395  0.12382226  0.00000000       0.000
   0.07525138  0.13033922  0.00000000       0.000
   0.07525138  0.13033922  0.00000000       0.000
   0.07183087  0.12441471  0.00000000       0.000
   0.06841035  0.11849020  0.00000000       0.000
   0.06498983  0.11256569  0.00000000       0.000
   0.06156931  0.10664118  0.00000000       0.000
   0.05814880  0.10071667  0.00000000       0.000
   0.05472828  0.09479216  0.00000000       0.000
   0.05130776  0.08886765  0.00000000       0.000
   0.04788724  0.08294314  0.00000000       0.000
   0.04446673  0.07701863  0.00000000       0.000
   0.04104621  0.07109412  0.00000000       0.000
   0.03762569  0.06516961  0.00000000       0.000
   0.03420517  0.05924510  0.00000000       0.000
   0.03078466  0.05332059  0.00000000       0.000
   0.02736414  0.04739608  0.00000000       0.000
   0.02394362  0.04147157  0.00000000       0.000
   0.02052310  0.03554706  0.00000000       0.000
   0.01710259  0.02962255  0.00000000       0.000
   0.01368207  0.02369804  0.00000000       0.000
   0.01026155  0.01777353  0.00000000       0.000
   0.00684103  0.01184902  0.00000000       0.000
   0.00342052  0.00592451  0.00000000       0.000
   0.00000000  0.00000000  0.00000000       0.000
 
 k-points in reciprocal lattice and weights: 0.020  15  15   1   27  0.040   54    3 
   0.00000000  0.00000000  0.00000000       0.004
   0.06666667  0.00000000  0.00000000       0.027
   0.13333333  0.00000000  0.00000000       0.027
   0.20000000  0.00000000  0.00000000       0.027
   0.26666667  0.00000000  0.00000000       0.027
   0.33333333  0.00000000  0.00000000       0.027
   0.40000000  0.00000000  0.00000000       0.027
   0.46666667  0.00000000  0.00000000       0.027
   0.06666667  0.06666667  0.00000000       0.027
   0.13333333  0.06666667  0.00000000       0.053
   0.20000000  0.06666667  0.00000000       0.053
   0.26666667  0.06666667  0.00000000       0.053
   0.33333333  0.06666667  0.00000000       0.053
   0.40000000  0.06666667  0.00000000       0.053
   0.46666667  0.06666667  0.00000000       0.027
   0.13333333  0.13333333  0.00000000       0.027
   0.20000000  0.13333333  0.00000000       0.053
   0.26666667  0.13333333  0.00000000       0.053
   0.33333333  0.13333333  0.00000000       0.053
   0.40000000  0.13333333  0.00000000       0.053
   0.20000000  0.20000000  0.00000000       0.027
   0.26666667  0.20000000  0.00000000       0.053
   0.33333333  0.20000000  0.00000000       0.053
   0.40000000  0.20000000  0.00000000       0.027
   0.26666667  0.26666667  0.00000000       0.027
   0.33333333  0.26666667  0.00000000       0.053
   0.33333333  0.33333333  0.00000000       0.009
   0.00000000  0.00000000  0.00000000       0.000
   0.02631579  0.00000000  0.00000000       0.000
   0.05263158  0.00000000  0.00000000       0.000
   0.07894737  0.00000000  0.00000000       0.000
   0.10526316  0.00000000  0.00000000       0.000
   0.13157895  0.00000000  0.00000000       0.000
   0.15789474  0.00000000  0.00000000       0.000
   0.18421053  0.00000000  0.00000000       0.000
   0.21052632  0.00000000  0.00000000       0.000
   0.23684211  0.00000000  0.00000000       0.000
   0.26315789  0.00000000  0.00000000       0.000
   0.28947368  0.00000000  0.00000000       0.000
   0.31578947  0.00000000  0.00000000       0.000
   0.34210526  0.00000000  0.00000000       0.000
   0.36842105  0.00000000  0.00000000       0.000
   0.39473684  0.00000000  0.00000000       0.000
   0.42105263  0.00000000  0.00000000       0.000
   0.44736842  0.00000000  0.00000000       0.000
   0.47368421  0.00000000  0.00000000       0.000
   0.50000000  0.00000000  0.00000000       0.000
   0.50000000  0.00000000  0.00000000       0.000
   0.48333333  0.03333333  0.00000000       0.000
   0.46666667  0.06666667  0.00000000       0.000
   0.45000000  0.10000000  0.00000000       0.000
   0.43333333  0.13333333  0.00000000       0.000
   0.41666667  0.16666667  0.00000000       0.000
   0.40000000  0.20000000  0.00000000       0.000
   0.38333333  0.23333333  0.00000000       0.000
   0.36666667  0.26666667  0.00000000       0.000
   0.35000000  0.30000000  0.00000000       0.000
   0.33333333  0.33333333  0.00000000       0.000
   0.33333333  0.33333333  0.00000000       0.000
   0.31818182  0.31818182  0.00000000       0.000
   0.30303030  0.30303030  0.00000000       0.000
   0.28787879  0.28787879  0.00000000       0.000
   0.27272727  0.27272727  0.00000000       0.000
   0.25757576  0.25757576  0.00000000       0.000
   0.24242424  0.24242424  0.00000000       0.000
   0.22727273  0.22727273  0.00000000       0.000
   0.21212121  0.21212121  0.00000000       0.000
   0.19696970  0.19696970  0.00000000       0.000
   0.18181818  0.18181818  0.00000000       0.000
   0.16666667  0.16666667  0.00000000       0.000
   0.15151515  0.15151515  0.00000000       0.000
   0.13636364  0.13636364  0.00000000       0.000
   0.12121212  0.12121212  0.00000000       0.000
   0.10606061  0.10606061  0.00000000       0.000
   0.09090909  0.09090909  0.00000000       0.000
   0.07575758  0.07575758  0.00000000       0.000
   0.06060606  0.06060606  0.00000000       0.000
   0.04545455  0.04545455  0.00000000       0.000
   0.03030303  0.03030303  0.00000000       0.000
   0.01515152  0.01515152  0.00000000       0.000
   0.00000000  0.00000000  0.00000000       0.000
 
 position of ions in fractional coordinates (direct lattice) 
   0.33333333  0.66666667  0.43116142
   0.66666667  0.33333333  0.56883858
   0.66666667  0.33333333  0.37385577
   0.00000000  0.00000000  0.50000000
   0.33333333  0.66666667  0.62614423
 
 position of ions in cartesian coordinates  (Angst):
   0.00000000  2.55742927 12.93484262
   2.21479872  1.27871464 17.06515738
   2.21479872  1.27871464 11.21567304
   0.00000000  0.00000000 15.00000000
   0.00000000  2.55742927 18.78432696
 


--------------------------------------------------------------------------------------------------------


 k-point   1 :   0.0000 0.0000 0.0000  plane waves:   11149
 k-point   2 :   0.0667 0.0000 0.0000  plane waves:   11107
 k-point   3 :   0.1333 0.0000 0.0000  plane waves:   11087
 k-point   4 :   0.2000 0.0000 0.0000  plane waves:   11057
 k-point   5 :   0.2667 0.0000 0.0000  plane waves:   11063
 k-point   6 :   0.3333 0.0000 0.0000  plane waves:   11033
 k-point   7 :   0.4000 0.0000 0.0000  plane waves:   11042
 k-point   8 :   0.4667 0.0000 0.0000  plane waves:   11048
 k-point   9 :   0.0667 0.0667 0.0000  plane waves:   11069
 k-point  10 :   0.1333 0.0667 0.0000  plane waves:   11087
 k-point  11 :   0.2000 0.0667 0.0000  plane waves:   11060
 k-point  12 :   0.2667 0.0667 0.0000  plane waves:   11056
 k-point  13 :   0.3333 0.0667 0.0000  plane waves:   11035
 k-point  14 :   0.4000 0.0667 0.0000  plane waves:   11043
 k-point  15 :   0.4667 0.0667 0.0000  plane waves:   11042
 k-point  16 :   0.1333 0.1333 0.0000  plane waves:   11081
 k-point  17 :   0.2000 0.1333 0.0000  plane waves:   11049
 k-point  18 :   0.2667 0.1333 0.0000  plane waves:   11043
 k-point  19 :   0.3333 0.1333 0.0000  plane waves:   11037
 k-point  20 :   0.4000 0.1333 0.0000  plane waves:   11044
 k-point  21 :   0.2000 0.2000 0.0000  plane waves:   11040
 k-point  22 :   0.2667 0.2000 0.0000  plane waves:   11046
 k-point  23 :   0.3333 0.2000 0.0000  plane waves:   11032
 k-point  24 :   0.4000 0.2000 0.0000  plane waves:   11052
 k-point  25 :   0.2667 0.2667 0.0000  plane waves:   11022
 k-point  26 :   0.3333 0.2667 0.0000  plane waves:   11036
 k-point  27 :   0.3333 0.3333 0.0000  plane waves:   11004
 k-point  28 :   0.0000 0.0000 0.0000  plane waves:   11149
 k-point  29 :   0.0263 0.0000 0.0000  plane waves:   11145
 k-point  30 :   0.0526 0.0000 0.0000  plane waves:   11107
 k-point  31 :   0.0789 0.0000 0.0000  plane waves:   11091
 k-point  32 :   0.1053 0.0000 0.0000  plane waves:   11107
 k-point  33 :   0.1316 0.0000 0.0000  plane waves:   11087
 k-point  34 :   0.1579 0.0000 0.0000  plane waves:   11063
 k-point  35 :   0.1842 0.0000 0.0000  plane waves:   11063
 k-point  36 :   0.2105 0.0000 0.0000  plane waves:   11065
 k-point  37 :   0.2368 0.0000 0.0000  plane waves:   11061
 k-point  38 :   0.2632 0.0000 0.0000  plane waves:   11063
 k-point  39 :   0.2895 0.0000 0.0000  plane waves:   11047
 k-point  40 :   0.3158 0.0000 0.0000  plane waves:   11043
 k-point  41 :   0.3421 0.0000 0.0000  plane waves:   11029
 k-point  42 :   0.3684 0.0000 0.0000  plane waves:   11036
 k-point  43 :   0.3947 0.0000 0.0000  plane waves:   11040
 k-point  44 :   0.4211 0.0000 0.0000  plane waves:   11050
 k-point  45 :   0.4474 0.0000 0.0000  plane waves:   11028
 k-point  46 :   0.4737 0.0000 0.0000  plane waves:   11046
 k-point  47 :   0.5000 0.0000 0.0000  plane waves:   11074
 k-point  48 :   0.5000 0.0000 0.0000  plane waves:   11074
 k-point  49 :   0.4833 0.0333 0.0000  plane waves:   11052
 k-point  50 :   0.4667 0.0667 0.0000  plane waves:   11042
 k-point  51 :   0.4500 0.1000 0.0000  plane waves:   11046
 k-point  52 :   0.4333 0.1333 0.0000  plane waves:   11052
 k-point  53 :   0.4167 0.1667 0.0000  plane waves:   11046
 k-point  54 :   0.4000 0.2000 0.0000  plane waves:   11052
 k-point  55 :   0.3833 0.2333 0.0000  plane waves:   11048
 k-point  56 :   0.3667 0.2667 0.0000  plane waves:   11032
 k-point  57 :   0.3500 0.3000 0.0000  plane waves:   11008
 k-point  58 :   0.3333 0.3333 0.0000  plane waves:   11004
 k-point  59 :   0.3333 0.3333 0.0000  plane waves:   11004
 k-point  60 :   0.3182 0.3182 0.0000  plane waves:   11020
 k-point  61 :   0.3030 0.3030 0.0000  plane waves:   11032
 k-point  62 :   0.2879 0.2879 0.0000  plane waves:   11028
 k-point  63 :   0.2727 0.2727 0.0000  plane waves:   11006
 k-point  64 :   0.2576 0.2576 0.0000  plane waves:   11028
 k-point  65 :   0.2424 0.2424 0.0000  plane waves:   11026
 k-point  66 :   0.2273 0.2273 0.0000  plane waves:   11042
 k-point  67 :   0.2121 0.2121 0.0000  plane waves:   11038
 k-point  68 :   0.1970 0.1970 0.0000  plane waves:   11048
 k-point  69 :   0.1818 0.1818 0.0000  plane waves:   11056
 k-point  70 :   0.1667 0.1667 0.0000  plane waves:   11075
 k-point  71 :   0.1515 0.1515 0.0000  plane waves:   11055
 k-point  72 :   0.1364 0.1364 0.0000  plane waves:   11081
 k-point  73 :   0.1212 0.1212 0.0000  plane waves:   11079
 k-point  74 :   0.1061 0.1061 0.0000  plane waves:   11099
 k-point  75 :   0.0909 0.0909 0.0000  plane waves:   11079
 k-point  76 :   0.0758 0.0758 0.0000  plane waves:   11083
 k-point  77 :   0.0606 0.0606 0.0000  plane waves:   11077
 k-point  78 :   0.0455 0.0455 0.0000  plane waves:   11109
 k-point  79 :   0.0303 0.0303 0.0000  plane waves:   11121
 k-point  80 :   0.0152 0.0152 0.0000  plane waves:   11141
 k-point  81 :   0.0000 0.0000 0.0000  plane waves:   11149

 maximum and minimum number of plane-waves per node :     11149    11004

 maximum number of plane-waves:     11149
 maximum index in each direction: 
   IXMAX=    7   IYMAX=    7   IZMAX=   51
   IXMIN=   -8   IYMIN=   -7   IZMIN=  -51


 serial   3D FFT for wavefunctions
 parallel 3D FFT for charge:
    minimum data exchange during FFTs selected (reduces bandwidth)


 total amount of memory used by VASP MPI-rank0   351449. kBytes
=======================================================================

   base      :      30000. kBytes
   nonl-proj :     261046. kBytes
   fftplans  :      16554. kBytes
   grid      :      14659. kBytes
   one-center:         77. kBytes
   wavefun   :      29113. kBytes
 
     INWAV:  cpu time      0.0000: real time      0.0000
 Broyden mixing: mesh for mixing (old mesh)
   NGX = 15   NGY = 15   NGZ =103
  (NGX  = 64   NGY  = 64   NGZ  =420)
  gives a total of  23175 points

 initial charge density was supplied:
 charge density of overlapping atoms calculated
 number of electron      48.0000000 magnetization 
 keeping initial charge density in first step


--------------------------------------------------------------------------------------------------------


 Maximum index for augmentation-charges        12159 (set IRDMAX)


--------------------------------------------------------------------------------------------------------


 First call to EWALD:  gamma=   0.222
 Maximum number of real-space cells 5x 5x 1
 Maximum number of reciprocal cells 2x 2x 9

    FEWALD:  cpu time      0.0020: real time      0.0025


--------------------------------------- Ionic step        1  -------------------------------------------




--------------------------------------- Iteration      1(   1)  ---------------------------------------


    POTLOK:  cpu time      0.1880: real time      0.1892
    SETDIJ:  cpu time      0.1850: real time      0.1863
     EDDAV:  cpu time     27.1060: real time     27.2233
       DOS:  cpu time      0.0030: real time      0.0073
    --------------------------------------------
      LOOP:  cpu time     27.4820: real time     27.6062

 eigenvalue-minimisations  :  6384
 total energy-change (2. order) : 0.3030979E+03  (-0.1959602E+04)
 number of electron      48.0000000 magnetization 
 augmentation part       48.0000000 magnetization 

 Free energy of the ion-electron system (eV)
  ---------------------------------------------------
  alpha Z        PSCENC =        22.73892569
  Ewald energy   TEWEN  =     12166.83406342
  -Hartree energ DENC   =    -16323.99929150
  -exchange      EXHF   =         0.00000000
  -V(xc)+E(xc)   XCENC  =        12.80485916
  PAW double counting   =      3973.93602650    -3799.31068879
  entropy T*S    EENTRO =        -0.00525573
  eigenvalues    EBANDS =      -338.11091707
  atomic energy  EATOM  =      4588.21020021
  Solvation  Ediel_sol  =         0.00000000
  ---------------------------------------------------
  free energy    TOTEN  =       303.09792191 eV

  energy without entropy =      303.10317763  energy(sigma->0) =      303.10054977


--------------------------------------------------------------------------------------------------------




--------------------------------------- Iteration      1(   2)  ---------------------------------------


     EDDAV:  cpu time     22.3800: real time     22.4788
       DOS:  cpu time      0.0010: real time      0.0016
    --------------------------------------------
      LOOP:  cpu time     22.3810: real time     22.4804

 eigenvalue-minimisations  :  6608
 total energy-change (2. order) :-0.2981174E+03  (-0.2957811E+03)
 number of electron      48.0000000 magnetization 
 augmentation part       48.0000000 magnetization 

 Free energy of the ion-electron system (eV)
  ---------------------------------------------------
  alpha Z        PSCENC =        22.73892569
  Ewald energy   TEWEN  =     12166.83406342
  -Hartree energ DENC   =    -16323.99929150
  -exchange      EXHF   =         0.00000000
  -V(xc)+E(xc)   XCENC  =        12.80485916
  PAW double counting   =      3973.93602650    -3799.31068879
  entropy T*S    EENTRO =        -0.00000000
  eigenvalues    EBANDS =      -636.23353912
  atomic energy  EATOM  =      4588.21020021
  Solvation  Ediel_sol  =         0.00000000
  ---------------------------------------------------
  free energy    TOTEN  =         4.98055558 eV

  energy without entropy =        4.98055558  energy(sigma->0) =        4.98055558


--------------------------------------------------------------------------------------------------------




--------------------------------------- Iteration      1(   3)  ---------------------------------------


     EDDAV:  cpu time     31.0130: real time     31.3644
       DOS:  cpu time      0.0020: real time      0.0020
    --------------------------------------------
      LOOP:  cpu time     31.0150: real time     31.3664

 eigenvalue-minimisations  :  7408
 total energy-change (2. order) :-0.2302829E+02  (-0.2300727E+02)
 number of electron      48.0000000 magnetization 
 augmentation part       48.0000000 magnetization 

 Free energy of the ion-electron system (eV)
  ---------------------------------------------------
  alpha Z        PSCENC =        22.73892569
  Ewald energy   TEWEN  =     12166.83406342
  -Hartree energ DENC   =    -16323.99929150
  -exchange      EXHF   =         0.00000000
  -V(xc)+E(xc)   XCENC  =        12.80485916
  PAW double counting   =      3973.93602650    -3799.31068879
  entropy T*S    EENTRO =        -0.00000000
  eigenvalues    EBANDS =      -659.26182452
  atomic energy  EATOM  =      4588.21020021
  Solvation  Ediel_sol  =         0.00000000
  ---------------------------------------------------
  free energy    TOTEN  =       -18.04772982 eV

  energy without entropy =      -18.04772982  energy(sigma->0) =      -18.04772982


--------------------------------------------------------------------------------------------------------




--------------------------------------- Iteration      1(   4)  ---------------------------------------


     EDDAV:  cpu time     31.1130: real time     31.3164
       DOS:  cpu time      0.0020: real time      0.0017
    --------------------------------------------
      LOOP:  cpu time     31.1150: real time     31.3181

 eigenvalue-minimisations  :  7488
 total energy-change (2. order) :-0.6543280E+00  (-0.6542571E+00)
 number of electron      48.0000000 magnetization 
 augmentation part       48.0000000 magnetization 

 Free energy of the ion-electron system (eV)
  ---------------------------------------------------
  alpha Z        PSCENC =        22.73892569
  Ewald energy   TEWEN  =     12166.83406342
  -Hartree energ DENC   =    -16323.99929150
  -exchange      EXHF   =         0.00000000
  -V(xc)+E(xc)   XCENC  =        12.80485916
  PAW double counting   =      3973.93602650    -3799.31068879
  entropy T*S    EENTRO =        -0.00000000
  eigenvalues    EBANDS =      -659.91615251
  atomic energy  EATOM  =      4588.21020021
  Solvation  Ediel_sol  =         0.00000000
  ---------------------------------------------------
  free energy    TOTEN  =       -18.70205781 eV

  energy without entropy =      -18.70205781  energy(sigma->0) =      -18.70205781


--------------------------------------------------------------------------------------------------------




--------------------------------------- Iteration      1(   5)  ---------------------------------------


     EDDAV:  cpu time     29.5170: real time     29.7659
       DOS:  cpu time      0.0010: real time      0.0020
    CHARGE:  cpu time      1.1500: real time      1.1661
    MIXING:  cpu time      0.0300: real time      0.0297
    --------------------------------------------
      LOOP:  cpu time     30.6980: real time     30.9639

 eigenvalue-minimisations  :  8624
 total energy-change (2. order) :-0.1293819E-01  (-0.1293813E-01)
 number of electron      48.0000000 magnetization 
 augmentation part        8.0238161 magnetization 

 Broyden mixing:
  rms(total) = 0.61718E+00    rms(broyden)= 0.61717E+00
  rms(prec ) = 0.62967E+00
  weight for this iteration     100.00

 Free energy of the ion-electron system (eV)
  ---------------------------------------------------
  alpha Z        PSCENC =        22.73892569
  Ewald energy   TEWEN  =     12166.83406342
  -Hartree energ DENC   =    -16323.99929150
  -exchange      EXHF   =         0.00000000
  -V(xc)+E(xc)   XCENC  =        12.80485916
  PAW double counting   =      3973.93602650    -3799.31068879
  entropy T*S    EENTRO =        -0.00000000
  eigenvalues    EBANDS =      -659.92909070
  atomic energy  EATOM  =      4588.21020021
  Solvation  Ediel_sol  =         0.00000000
  ---------------------------------------------------
  free energy    TOTEN  =       -18.71499600 eV

  energy without entropy =      -18.71499600  energy(sigma->0) =      -18.71499600


--------------------------------------------------------------------------------------------------------




--------------------------------------- Iteration      1(   6)  ---------------------------------------


    POTLOK:  cpu time      0.1930: real time      0.1947
    SETDIJ:  cpu time      0.1970: real time      0.2011
     EDDAV:  cpu time     33.1620: real time     33.3849
       DOS:  cpu time      0.0020: real time      0.0020
    CHARGE:  cpu time      1.1060: real time      1.1158
    MIXING:  cpu time      0.0280: real time      0.0607
    --------------------------------------------
      LOOP:  cpu time     34.6890: real time     34.9591

 eigenvalue-minimisations  :  7808
 total energy-change (2. order) : 0.3571598E+00  (-0.1852802E+00)
 number of electron      48.0000000 magnetization 
 augmentation part        8.0861378 magnetization 

 Broyden mixing:
  rms(total) = 0.44195E+00    rms(broyden)= 0.44195E+00
  rms(prec ) = 0.44429E+00
  weight for this iteration     100.00

 eigenvalues of (default mixing * dielectric matrix)
  average eigenvalue GAMMA=   2.3207
  2.3207

 Free energy of the ion-electron system (eV)
  ---------------------------------------------------
  alpha Z        PSCENC =        22.73892569
  Ewald energy   TEWEN  =     12166.83406342
  -Hartree energ DENC   =    -16308.57047223
  -exchange      EXHF   =         0.00000000
  -V(xc)+E(xc)   XCENC  =        12.86914570
  PAW double counting   =      4129.17702717    -3951.99257051
  entropy T*S    EENTRO =        -0.00000000
  eigenvalues    EBANDS =      -677.62415561
  atomic energy  EATOM  =      4588.21020021
  Solvation  Ediel_sol  =         0.00000000
  ---------------------------------------------------
  free energy    TOTEN  =       -18.35783616 eV

  energy without entropy =      -18.35783616  energy(sigma->0) =      -18.35783616


--------------------------------------------------------------------------------------------------------




--------------------------------------- Iteration      1(   7)  ---------------------------------------


    POTLOK:  cpu time      0.1590: real time      0.1595
    SETDIJ:  cpu time      0.1940: real time      0.1946
     EDDAV:  cpu time     24.2960: real time     24.4358
       DOS:  cpu time      0.0020: real time      0.0018
    CHARGE:  cpu time      0.9410: real time      0.9451
    MIXING:  cpu time      0.0220: real time      0.0246
    --------------------------------------------
      LOOP:  cpu time     25.6130: real time     25.7613

 eigenvalue-minimisations  :  5728
 total energy-change (2. order) :-0.9259138E-02  (-0.5806231E-01)
 number of electron      48.0000000 magnetization 
 augmentation part        8.0860181 magnetization 

 Broyden mixing:
  rms(total) = 0.99464E-01    rms(broyden)= 0.99464E-01
  rms(prec ) = 0.10354E+00
  weight for this iteration     100.00

 eigenvalues of (default mixing * dielectric matrix)
  average eigenvalue GAMMA=   1.5674
  0.8414  2.2935

 Free energy of the ion-electron system (eV)
  ---------------------------------------------------
  alpha Z        PSCENC =        22.73892569
  Ewald energy   TEWEN  =     12166.83406342
  -Hartree energ DENC   =    -16314.15566455
  -exchange      EXHF   =         0.00000000
  -V(xc)+E(xc)   XCENC  =        12.99240468
  PAW double counting   =      4446.19838582    -4268.45312326
  entropy T*S    EENTRO =        -0.00000000
  eigenvalues    EBANDS =      -672.73228732
  atomic energy  EATOM  =      4588.21020021
  Solvation  Ediel_sol  =         0.00000000
  ---------------------------------------------------
  free energy    TOTEN  =       -18.36709530 eV

  energy without entropy =      -18.36709530  energy(sigma->0) =      -18.36709530


--------------------------------------------------------------------------------------------------------




--------------------------------------- Iteration      1(   8)  ---------------------------------------


    POTLOK:  cpu time      0.1440: real time      0.1444
    SETDIJ:  cpu time      0.1630: real time      0.1639
     EDDAV:  cpu time     21.5510: real time     21.6971
       DOS:  cpu time      0.0020: real time      0.0020
    CHARGE:  cpu time      1.1370: real time      1.1431
    MIXING:  cpu time      0.0390: real time      0.0573
    --------------------------------------------
      LOOP:  cpu time     23.0360: real time     23.2078

 eigenvalue-minimisations  :  5680
 total energy-change (2. order) : 0.5894797E-02  (-0.1096141E-01)
 number of electron      48.0000000 magnetization 
 augmentation part        8.0832271 magnetization 

 Broyden mixing:
  rms(total) = 0.53411E-01    rms(broyden)= 0.53411E-01
  rms(prec ) = 0.53884E-01
  weight for this iteration     100.00

 eigenvalues of (default mixing * dielectric matrix)
  average eigenvalue GAMMA=   1.3505
  2.2889  0.8813  0.8813

 Free energy of the ion-electron system (eV)
  ---------------------------------------------------
  alpha Z        PSCENC =        22.73892569
  Ewald energy   TEWEN  =     12166.83406342
  -Hartree energ DENC   =    -16312.87519311
  -exchange      EXHF   =         0.00000000
  -V(xc)+E(xc)   XCENC  =        13.05824793
  PAW double counting   =      4517.31542314    -4339.66438213
  entropy T*S    EENTRO =        -0.00000000
  eigenvalues    EBANDS =      -673.97848565
  atomic energy  EATOM  =      4588.21020021
  Solvation  Ediel_sol  =         0.00000000
  ---------------------------------------------------
  free energy    TOTEN  =       -18.36120050 eV

  energy without entropy =      -18.36120050  energy(sigma->0) =      -18.36120050


--------------------------------------------------------------------------------------------------------




--------------------------------------- Iteration      1(   9)  ---------------------------------------


    POTLOK:  cpu time      0.1930: real time      0.1939
    SETDIJ:  cpu time      0.1790: real time      0.1799
     EDDAV:  cpu time     31.8540: real time     32.0763
       DOS:  cpu time      0.0020: real time      0.0022
    CHARGE:  cpu time      1.0940: real time      1.0988
    MIXING:  cpu time      0.0260: real time      0.0260
    --------------------------------------------
      LOOP:  cpu time     33.3480: real time     33.5770

 eigenvalue-minimisations  :  7328
 total energy-change (2. order) : 0.2149825E-03  (-0.1125064E-02)
 number of electron      48.0000000 magnetization 
 augmentation part        8.0772448 magnetization 

 Broyden mixing:
  rms(total) = 0.35569E-01    rms(broyden)= 0.35569E-01
  rms(prec ) = 0.35722E-01
  weight for this iteration     100.00

 eigenvalues of (default mixing * dielectric matrix)
  average eigenvalue GAMMA=   1.6102
  2.6601  1.8121  1.1808  0.7877

 Free energy of the ion-electron system (eV)
  ---------------------------------------------------
  alpha Z        PSCENC =        22.73892569
  Ewald energy   TEWEN  =     12166.83406342
  -Hartree energ DENC   =    -16313.59672780
  -exchange      EXHF   =         0.00000000
  -V(xc)+E(xc)   XCENC  =        13.08251076
  PAW double counting   =      4537.31048773    -4359.83679275
  entropy T*S    EENTRO =        -0.00000000
  eigenvalues    EBANDS =      -673.10365279
  atomic energy  EATOM  =      4588.21020021
  Solvation  Ediel_sol  =         0.00000000
  ---------------------------------------------------
  free energy    TOTEN  =       -18.36098552 eV

  energy without entropy =      -18.36098552  energy(sigma->0) =      -18.36098552


--------------------------------------------------------------------------------------------------------




--------------------------------------- Iteration      1(  10)  ---------------------------------------


    POTLOK:  cpu time      0.1670: real time      0.1682
    SETDIJ:  cpu time      0.1880: real time      0.1883
     EDDAV:  cpu time     29.5990: real time     29.8027
       DOS:  cpu time      0.0010: real time      0.0019
    CHARGE:  cpu time      0.8990: real time      0.9074
    MIXING:  cpu time      0.0280: real time      0.0279
    --------------------------------------------
      LOOP:  cpu time     30.8820: real time     31.0963

 eigenvalue-minimisations  :  7632
 total energy-change (2. order) :-0.5376920E-03  (-0.3552544E-03)
 number of electron      48.0000000 magnetization 
 augmentation part        8.0727621 magnetization 

 Broyden mixing:
  rms(total) = 0.86685E-02    rms(broyden)= 0.86684E-02
  rms(prec ) = 0.91966E-02
  weight for this iteration     100.00

 eigenvalues of (default mixing * dielectric matrix)
  average eigenvalue GAMMA=   1.4592
  2.4607  1.5240  1.5240  0.8936  0.8936

 Free energy of the ion-electron system (eV)
  ---------------------------------------------------
  alpha Z        PSCENC =        22.73892569
  Ewald energy   TEWEN  =     12166.83406342
  -Hartree energ DENC   =    -16314.37658333
  -exchange      EXHF   =         0.00000000
  -V(xc)+E(xc)   XCENC  =        13.11525331
  PAW double counting   =      4563.35752165    -4386.04312311
  entropy T*S    EENTRO =        -0.00000000
  eigenvalues    EBANDS =      -672.19778106
  atomic energy  EATOM  =      4588.21020021
  Solvation  Ediel_sol  =         0.00000000
  ---------------------------------------------------
  free energy    TOTEN  =       -18.36152321 eV

  energy without entropy =      -18.36152321  energy(sigma->0) =      -18.36152321


--------------------------------------------------------------------------------------------------------




--------------------------------------- Iteration      1(  11)  ---------------------------------------


    POTLOK:  cpu time      0.1480: real time      0.1482
    SETDIJ:  cpu time      0.1530: real time      0.1563
     EDDAV:  cpu time     25.6280: real time     25.8262
       DOS:  cpu time      0.0020: real time      0.0020
    CHARGE:  cpu time      1.1500: real time      1.1556
    MIXING:  cpu time      0.0200: real time      0.0192
    --------------------------------------------
      LOOP:  cpu time     27.1010: real time     27.3075

 eigenvalue-minimisations  :  6640
 total energy-change (2. order) : 0.1033949E-03  (-0.1355112E-03)
 number of electron      48.0000000 magnetization 
 augmentation part        8.0738415 magnetization 

 Broyden mixing:
  rms(total) = 0.41362E-02    rms(broyden)= 0.41362E-02
  rms(prec ) = 0.42156E-02
  weight for this iteration     100.00

 eigenvalues of (default mixing * dielectric matrix)
  average eigenvalue GAMMA=   1.4628
  2.0686  2.0686  1.4796  1.4796  0.8401  0.8401

 Free energy of the ion-electron system (eV)
  ---------------------------------------------------
  alpha Z        PSCENC =        22.73892569
  Ewald energy   TEWEN  =     12166.83406342
  -Hartree energ DENC   =    -16314.05770909
  -exchange      EXHF   =         0.00000000
  -V(xc)+E(xc)   XCENC  =        13.11549194
  PAW double counting   =      4561.11168343    -4383.76375697
  entropy T*S    EENTRO =        -0.00000000
  eigenvalues    EBANDS =      -672.55031845
  atomic energy  EATOM  =      4588.21020021
  Solvation  Ediel_sol  =         0.00000000
  ---------------------------------------------------
  free energy    TOTEN  =       -18.36141982 eV

  energy without entropy =      -18.36141982  energy(sigma->0) =      -18.36141982


--------------------------------------------------------------------------------------------------------




--------------------------------------- Iteration      1(  12)  ---------------------------------------


    POTLOK:  cpu time      0.1780: real time      0.1793
    SETDIJ:  cpu time      0.1980: real time      0.1990
     EDDAV:  cpu time     28.7910: real time     28.9948
       DOS:  cpu time      0.0020: real time      0.0021
    CHARGE:  cpu time      1.0780: real time      1.0822
    MIXING:  cpu time      0.0320: real time      0.0324
    --------------------------------------------
      LOOP:  cpu time     30.2790: real time     30.4898

 eigenvalue-minimisations  :  6496
 total energy-change (2. order) :-0.1939847E-04  (-0.7909967E-05)
 number of electron      48.0000000 magnetization 
 augmentation part        8.0740302 magnetization 

 Broyden mixing:
  rms(total) = 0.26479E-02    rms(broyden)= 0.26479E-02
  rms(prec ) = 0.27193E-02
  weight for this iteration     100.00

 eigenvalues of (default mixing * dielectric matrix)
  average eigenvalue GAMMA=   1.6111
  2.7813  2.7813  1.4765  1.4765  1.0233  0.8694  0.8694

 Free energy of the ion-electron system (eV)
  ---------------------------------------------------
  alpha Z        PSCENC =        22.73892569
  Ewald energy   TEWEN  =     12166.83406342
  -Hartree energ DENC   =    -16314.22796646
  -exchange      EXHF   =         0.00000000
  -V(xc)+E(xc)   XCENC  =        13.11427331
  PAW double counting   =      4557.72865670    -4380.38978714
  entropy T*S    EENTRO =        -0.00000000
  eigenvalues    EBANDS =      -672.36980494
  atomic energy  EATOM  =      4588.21020021
  Solvation  Ediel_sol  =         0.00000000
  ---------------------------------------------------
  free energy    TOTEN  =       -18.36143922 eV

  energy without entropy =      -18.36143922  energy(sigma->0) =      -18.36143922


--------------------------------------------------------------------------------------------------------




--------------------------------------- Iteration      1(  13)  ---------------------------------------


    POTLOK:  cpu time      0.1670: real time      0.1680
    SETDIJ:  cpu time      0.1840: real time      0.1849
     EDDAV:  cpu time     27.4360: real time     27.5993
       DOS:  cpu time      0.0020: real time      0.0024
    CHARGE:  cpu time      0.9370: real time      0.9410
    MIXING:  cpu time      0.0140: real time      0.0137
    --------------------------------------------
      LOOP:  cpu time     28.7400: real time     28.9094

 eigenvalue-minimisations  :  7040
 total energy-change (2. order) :-0.2573419E-04  (-0.2335047E-05)
 number of electron      48.0000000 magnetization 
 augmentation part        8.0738477 magnetization 

 Broyden mixing:
  rms(total) = 0.71991E-03    rms(broyden)= 0.71989E-03
  rms(prec ) = 0.78175E-03
  weight for this iteration     100.00

 eigenvalues of (default mixing * dielectric matrix)
  average eigenvalue GAMMA=   1.5167
  2.7705  1.8814  1.8814  1.5120  1.5120  0.8499  0.8499  0.8759

 Free energy of the ion-electron system (eV)
  ---------------------------------------------------
  alpha Z        PSCENC =        22.73892569
  Ewald energy   TEWEN  =     12166.83406342
  -Hartree energ DENC   =    -16314.49682168
  -exchange      EXHF   =         0.00000000
  -V(xc)+E(xc)   XCENC  =        13.11819809
  PAW double counting   =      4558.85503963    -4381.53480698
  entropy T*S    EENTRO =        -0.00000000
  eigenvalues    EBANDS =      -672.08626332
  atomic energy  EATOM  =      4588.21020021
  Solvation  Ediel_sol  =         0.00000000
  ---------------------------------------------------
  free energy    TOTEN  =       -18.36146495 eV

  energy without entropy =      -18.36146495  energy(sigma->0) =      -18.36146495


--------------------------------------------------------------------------------------------------------




--------------------------------------- Iteration      1(  14)  ---------------------------------------


    POTLOK:  cpu time      0.1400: real time      0.1409
    SETDIJ:  cpu time      0.1580: real time      0.1591
     EDDAV:  cpu time     28.4400: real time     28.6161
       DOS:  cpu time      0.0020: real time      0.0021
    CHARGE:  cpu time      1.1400: real time      1.1449
    MIXING:  cpu time      0.0170: real time      0.0166
    --------------------------------------------
      LOOP:  cpu time     29.8970: real time     30.0797

 eigenvalue-minimisations  :  7344
 total energy-change (2. order) :-0.8421715E-05  (-0.1593240E-06)
 number of electron      48.0000000 magnetization 
 augmentation part        8.0738482 magnetization 

 Broyden mixing:
  rms(total) = 0.60797E-03    rms(broyden)= 0.60795E-03
  rms(prec ) = 0.66676E-03
  weight for this iteration     100.00

 eigenvalues of (default mixing * dielectric matrix)
  average eigenvalue GAMMA=   1.5988
  2.7580  2.7580  2.4341  1.3950  1.3950  0.9653  0.9091  0.8873  0.8873

 Free energy of the ion-electron system (eV)
  ---------------------------------------------------
  alpha Z        PSCENC =        22.73892569
  Ewald energy   TEWEN  =     12166.83406342
  -Hartree energ DENC   =    -16314.53730900
  -exchange      EXHF   =         0.00000000
  -V(xc)+E(xc)   XCENC  =        13.11890258
  PAW double counting   =      4559.67658055    -4382.35218930
  entropy T*S    EENTRO =        -0.00000000
  eigenvalues    EBANDS =      -672.05064753
  atomic energy  EATOM  =      4588.21020021
  Solvation  Ediel_sol  =         0.00000000
  ---------------------------------------------------
  free energy    TOTEN  =       -18.36147337 eV

  energy without entropy =      -18.36147337  energy(sigma->0) =      -18.36147337


--------------------------------------------------------------------------------------------------------




--------------------------------------- Iteration      1(  15)  ---------------------------------------


    POTLOK:  cpu time      0.1730: real time      0.1742
    SETDIJ:  cpu time      0.1900: real time      0.1910
     EDDAV:  cpu time     28.0060: real time     28.1230
       DOS:  cpu time      0.0030: real time      0.0023
    CHARGE:  cpu time      1.0860: real time      1.0902
    MIXING:  cpu time      0.0280: real time      0.0283
    --------------------------------------------
      LOOP:  cpu time     29.4860: real time     29.6090

 eigenvalue-minimisations  :  6352
 total energy-change (2. order) :-0.2243452E-04  (-0.2877681E-06)
 number of electron      48.0000000 magnetization 
 augmentation part        8.0739488 magnetization 

 Broyden mixing:
  rms(total) = 0.50595E-03    rms(broyden)= 0.50593E-03
  rms(prec ) = 0.53177E-03
  weight for this iteration     100.00

 eigenvalues of (default mixing * dielectric matrix)
  average eigenvalue GAMMA=   1.6040
  3.3135  2.7935  1.8147  1.8147  1.4214  1.4214  0.8566  0.8566  0.8739  0.8739

 Free energy of the ion-electron system (eV)
  ---------------------------------------------------
  alpha Z        PSCENC =        22.73892569
  Ewald energy   TEWEN  =     12166.83406342
  -Hartree energ DENC   =    -16314.72009321
  -exchange      EXHF   =         0.00000000
  -V(xc)+E(xc)   XCENC  =        13.11936438
  PAW double counting   =      4558.90069720    -4381.57519681
  entropy T*S    EENTRO =        -0.00000000
  eigenvalues    EBANDS =      -671.86945668
  atomic energy  EATOM  =      4588.21020021
  Solvation  Ediel_sol  =         0.00000000
  ---------------------------------------------------
  free energy    TOTEN  =       -18.36149581 eV

  energy without entropy =      -18.36149581  energy(sigma->0) =      -18.36149581


--------------------------------------------------------------------------------------------------------




--------------------------------------- Iteration      1(  16)  ---------------------------------------


    POTLOK:  cpu time      0.1650: real time      0.1654
    SETDIJ:  cpu time      0.1860: real time      0.1870
     EDDAV:  cpu time     28.0820: real time     28.1986
       DOS:  cpu time      0.0020: real time      0.0019
    CHARGE:  cpu time      0.9130: real time      0.9162
    MIXING:  cpu time      0.0160: real time      0.0159
    --------------------------------------------
      LOOP:  cpu time     29.3640: real time     29.4849

 eigenvalue-minimisations  :  7584
 total energy-change (2. order) :-0.9112789E-05  (-0.4476759E-07)
 number of electron      48.0000000 magnetization 
 augmentation part        8.0739563 magnetization 

 Broyden mixing:
  rms(total) = 0.39641E-03    rms(broyden)= 0.39638E-03
  rms(prec ) = 0.41402E-03
  weight for this iteration     100.00

 eigenvalues of (default mixing * dielectric matrix)
  average eigenvalue GAMMA=   1.7120
  3.2513  3.2513  2.4748  2.4748  1.3692  1.3692  1.0959  0.8670  0.8670  0.9257
  0.8860

 Free energy of the ion-electron system (eV)
  ---------------------------------------------------
  alpha Z        PSCENC =        22.73892569
  Ewald energy   TEWEN  =     12166.83406342
  -Hartree energ DENC   =    -16314.78296677
  -exchange      EXHF   =         0.00000000
  -V(xc)+E(xc)   XCENC  =        13.11958906
  PAW double counting   =      4558.88677706    -4381.56109149
  entropy T*S    EENTRO =        -0.00000000
  eigenvalues    EBANDS =      -671.80700210
  atomic energy  EATOM  =      4588.21020021
  Solvation  Ediel_sol  =         0.00000000
  ---------------------------------------------------
  free energy    TOTEN  =       -18.36150492 eV

  energy without entropy =      -18.36150492  energy(sigma->0) =      -18.36150492


--------------------------------------------------------------------------------------------------------




--------------------------------------- Iteration      1(  17)  ---------------------------------------


    POTLOK:  cpu time      0.1400: real time      0.1405
    SETDIJ:  cpu time      0.1580: real time      0.1592
     EDDAV:  cpu time     26.1030: real time     26.2214
       DOS:  cpu time      0.0020: real time      0.0022
    CHARGE:  cpu time      1.1320: real time      1.1372
    MIXING:  cpu time      0.0250: real time      0.0251
    --------------------------------------------
      LOOP:  cpu time     27.5600: real time     27.6857

 eigenvalue-minimisations  :  6384
 total energy-change (2. order) :-0.1696450E-04  (-0.1451283E-06)
 number of electron      48.0000000 magnetization 
 augmentation part        8.0739348 magnetization 

 Broyden mixing:
  rms(total) = 0.33026E-03    rms(broyden)= 0.33023E-03
  rms(prec ) = 0.33382E-03
  weight for this iteration     100.00

 eigenvalues of (default mixing * dielectric matrix)
  average eigenvalue GAMMA=   1.8263
  5.5074  2.9097  2.6346  1.8265  1.8265  1.3893  1.3893  0.8616  0.8616  0.9383
  0.9383  0.8324

 Free energy of the ion-electron system (eV)
  ---------------------------------------------------
  alpha Z        PSCENC =        22.73892569
  Ewald energy   TEWEN  =     12166.83406342
  -Hartree energ DENC   =    -16314.90203423
  -exchange      EXHF   =         0.00000000
  -V(xc)+E(xc)   XCENC  =        13.12008715
  PAW double counting   =      4559.25839924    -4381.93206148
  entropy T*S    EENTRO =        -0.00000000
  eigenvalues    EBANDS =      -671.68910188
  atomic energy  EATOM  =      4588.21020021
  Solvation  Ediel_sol  =         0.00000000
  ---------------------------------------------------
  free energy    TOTEN  =       -18.36152188 eV

  energy without entropy =      -18.36152188  energy(sigma->0) =      -18.36152188


--------------------------------------------------------------------------------------------------------




--------------------------------------- Iteration      1(  18)  ---------------------------------------


    POTLOK:  cpu time      0.1860: real time      0.1871
    SETDIJ:  cpu time      0.1940: real time      0.1945
     EDDAV:  cpu time     31.2460: real time     31.3769
       DOS:  cpu time      0.0020: real time      0.0019
    CHARGE:  cpu time      1.0790: real time      1.0828
    MIXING:  cpu time      0.0330: real time      0.0332
    --------------------------------------------
      LOOP:  cpu time     32.7400: real time     32.8764

 eigenvalue-minimisations  :  7280
 total energy-change (2. order) :-0.4131411E-05  (-0.2020284E-07)
 number of electron      48.0000000 magnetization 
 augmentation part        8.0739507 magnetization 

 Broyden mixing:
  rms(total) = 0.21034E-03    rms(broyden)= 0.21029E-03
  rms(prec ) = 0.21224E-03
  weight for this iteration     100.00

 eigenvalues of (default mixing * dielectric matrix)
  average eigenvalue GAMMA=   1.8116
  5.4025  3.0737  2.6957  1.9775  1.9775  1.4215  1.4215  1.0180  1.0180  0.8679
  0.8679  0.9302  0.8793

 Free energy of the ion-electron system (eV)
  ---------------------------------------------------
  alpha Z        PSCENC =        22.73892569
  Ewald energy   TEWEN  =     12166.83406342
  -Hartree energ DENC   =    -16314.94474233
  -exchange      EXHF   =         0.00000000
  -V(xc)+E(xc)   XCENC  =        13.12022872
  PAW double counting   =      4559.19744637    -4381.87097396
  entropy T*S    EENTRO =        -0.00000000
  eigenvalues    EBANDS =      -671.64667413
  atomic energy  EATOM  =      4588.21020021
  Solvation  Ediel_sol  =         0.00000000
  ---------------------------------------------------
  free energy    TOTEN  =       -18.36152601 eV

  energy without entropy =      -18.36152601  energy(sigma->0) =      -18.36152601


--------------------------------------------------------------------------------------------------------




--------------------------------------- Iteration      1(  19)  ---------------------------------------


    POTLOK:  cpu time      0.1680: real time      0.1685
[...]
      6     -24.4181      2.00000
      7     -24.4168      2.00000
      8     -24.4164      2.00000
      9     -24.4161      2.00000
     10     -24.4148      2.00000
     11     -13.9708      2.00000
     12     -13.5354      2.00000
     13     -11.9687      2.00000
     14     -10.4986      2.00000
     15      -9.7436      2.00000
     16      -4.4176      2.00000
     17      -4.0067      2.00000
     18      -3.6357      2.00000
     19      -3.4288      2.00000
     20      -3.1055      2.00000
     21      -2.7828      2.00000
     22      -2.4067      2.00000
     23      -1.9162      2.00000
     24      -1.7967      2.00000
     25      -0.3341      0.00000
     26       0.1312      0.00000
     27       0.2610      0.00000
     28       0.8146      0.00000
     29       1.4050      0.00000
     30       1.5092      0.00000
     31       3.3086      0.00000
     32       3.4872      0.00000

 k-point    75 :       0.0909    0.0909    0.0000
  band No.  band energies     occupation 
      1     -24.4277      2.00000
      2     -24.4267      2.00000
      3     -24.4243      2.00000
      4     -24.4236      2.00000
      5     -24.4186      2.00000
      6     -24.4178      2.00000
      7     -24.4171      2.00000
      8     -24.4165      2.00000
      9     -24.4160      2.00000
     10     -24.4150      2.00000
     11     -14.0435      2.00000
     12     -13.6020      2.00000
     13     -12.0048      2.00000
     14     -10.4605      2.00000
     15      -9.6355      2.00000
     16      -4.2254      2.00000
     17      -3.7666      2.00000
     18      -3.5201      2.00000
     19      -3.3249      2.00000
     20      -3.0101      2.00000
     21      -2.7051      2.00000
     22      -2.3467      2.00000
     23      -1.8985      2.00000
     24      -1.8147      2.00000
     25      -0.3477      0.00000
     26       0.0532      0.00000
     27       0.0764      0.00000
     28       0.8015      0.00000
     29       1.1536      0.00000
     30       1.4079      0.00000
     31       3.2952      0.00000
     32       3.4228      0.00000

 k-point    76 :       0.0758    0.0758    0.0000
  band No.  band energies     occupation 
      1     -24.4274      2.00000
      2     -24.4264      2.00000
      3     -24.4249      2.00000
      4     -24.4241      2.00000
      5     -24.4190      2.00000
      6     -24.4180      2.00000
      7     -24.4170      2.00000
      8     -24.4165      2.00000
      9     -24.4158      2.00000
     10     -24.4150      2.00000
     11     -14.1054      2.00000
     12     -13.6590      2.00000
     13     -12.0371      2.00000
     14     -10.4306      2.00000
     15      -9.5419      2.00000
     16      -4.0188      2.00000
     17      -3.5597      2.00000
     18      -3.3476      2.00000
     19      -3.2451      2.00000
     20      -2.9442      2.00000
     21      -2.6364      2.00000
     22      -2.2668      2.00000
     23      -1.8801      2.00000
     24      -1.8758      2.00000
     25      -0.3587      0.00000
     26      -0.1497      0.00000
     27       0.0341      0.00000
     28       0.7778      0.00000
     29       0.9141      0.00000
     30       1.2934      0.00000
     31       3.2683      0.00000
     32       3.3435      0.00000

 k-point    77 :       0.0606    0.0606    0.0000
  band No.  band energies     occupation 
      1     -24.4272      2.00000
      2     -24.4262      2.00000
      3     -24.4254      2.00000
      4     -24.4246      2.00000
      5     -24.4193      2.00000
      6     -24.4183      2.00000
      7     -24.4168      2.00000
      8     -24.4164      2.00000
      9     -24.4156      2.00000
     10     -24.4150      2.00000
     11     -14.1563      2.00000
     12     -13.7061      2.00000
     13     -12.0646      2.00000
     14     -10.4077      2.00000
     15      -9.4640      2.00000
     16      -3.8080      2.00000
     17      -3.3957      2.00000
     18      -3.1794      2.00000
     19      -3.1207      2.00000
     20      -2.8975      2.00000
     21      -2.5721      2.00000
     22      -2.1966      2.00000
     23      -1.9829      2.00000
     24      -1.8612      2.00000
     25      -0.3949      0.00000
     26      -0.3091      0.00000
     27      -0.0165      0.00000
     28       0.7350      0.00000
     29       0.7484      0.00000
     30       1.1511      0.00000
     31       3.2372      0.00000
     32       3.2673      0.00000

 k-point    78 :       0.0455    0.0455    0.0000
  band No.  band energies     occupation 
      1     -24.4270      2.00000
      2     -24.4261      2.00000
      3     -24.4258      2.00000
      4     -24.4250      2.00000
      5     -24.4196      2.00000
      6     -24.4185      2.00000
      7     -24.4165      2.00000
      8     -24.4163      2.00000
      9     -24.4154      2.00000
     10     -24.4150      2.00000
     11     -14.1961      2.00000
     12     -13.7430      2.00000
     13     -12.0867      2.00000
     14     -10.3911      2.00000
     15      -9.4027      2.00000
     16      -3.6148      2.00000
     17      -3.2438      2.00000
     18      -3.1072      2.00000
     19      -2.8978      2.00000
     20      -2.8592      2.00000
     21      -2.5020      2.00000
     22      -2.1528      2.00000
     23      -2.1043      2.00000
     24      -1.8907      2.00000
     25      -0.4832      0.00000
     26      -0.3824      0.00000
     27      -0.0943      0.00000
     28       0.6590      0.00000
     29       0.7178      0.00000
     30       0.9810      0.00000
     31       3.1998      0.00000
     32       3.2099      0.00000

 k-point    79 :       0.0303    0.0303    0.0000
  band No.  band energies     occupation 
      1     -24.4268      2.00000
      2     -24.4264      2.00000
      3     -24.4258      2.00000
      4     -24.4254      2.00000
      5     -24.4198      2.00000
      6     -24.4187      2.00000
      7     -24.4163      2.00000
      8     -24.4162      2.00000
      9     -24.4152      2.00000
     10     -24.4150      2.00000
     11     -14.2246      2.00000
     12     -13.7696      2.00000
     13     -12.1028      2.00000
     14     -10.3799      2.00000
     15      -9.3584      2.00000
     16      -3.4746      2.00000
     17      -3.0926      2.00000
     18      -3.0040      2.00000
     19      -2.8179      2.00000
     20      -2.7405      2.00000
     21      -2.4363      2.00000
     22      -2.1923      2.00000
     23      -2.1383      2.00000
     24      -1.9873      2.00000
     25      -0.6335      0.00000
     26      -0.3539      0.00000
     27      -0.1654      0.00000
     28       0.6635      0.00000
     29       0.6807      0.00000
     30       0.8073      0.00000
     31       3.1456      0.00000
     32       3.1898      0.00000

 k-point    80 :       0.0152    0.0152    0.0000
  band No.  band energies     occupation 
      1     -24.4267      2.00000
      2     -24.4266      2.00000
      3     -24.4257      2.00000
      4     -24.4256      2.00000
      5     -24.4200      2.00000
      6     -24.4189      2.00000
      7     -24.4162      2.00000
      8     -24.4162      2.00000
      9     -24.4151      2.00000
     10     -24.4151      2.00000
     11     -14.2417      2.00000
     12     -13.7855      2.00000
     13     -12.1127      2.00000
     14     -10.3734      2.00000
     15      -9.3318      2.00000
     16      -3.4044      2.00000
     17      -2.9525      2.00000
     18      -2.9065      2.00000
     19      -2.7370      2.00000
     20      -2.6700      2.00000
     21      -2.4823      2.00000
     22      -2.1987      2.00000
     23      -2.1387      2.00000
     24      -2.0731      2.00000
     25      -0.7930      0.00000
     26      -0.2673      0.00000
     27      -0.2045      0.00000
     28       0.5877      0.00000
     29       0.6913      0.00000
     30       0.7183      0.00000
     31       3.1099      0.00000
     32       3.1778      0.00000

 k-point    81 :       0.0000    0.0000    0.0000
  band No.  band energies     occupation 
      1     -24.4267      2.00000
      2     -24.4267      2.00000
      3     -24.4257      2.00000
      4     -24.4257      2.00000
      5     -24.4200      2.00000
      6     -24.4189      2.00000
      7     -24.4162      2.00000
      8     -24.4162      2.00000
      9     -24.4151      2.00000
     10     -24.4151      2.00000
     11     -14.2474      2.00000
     12     -13.7909      2.00000
     13     -12.1160      2.00000
     14     -10.3713      2.00000
     15      -9.3229      2.00000
     16      -3.3851      2.00000
     17      -2.8794      2.00000
     18      -2.8794      2.00000
     19      -2.6558      2.00000
     20      -2.6558      2.00000
     21      -2.5370      2.00000
     22      -2.2854      2.00000
     23      -2.0836      2.00000
     24      -2.0836      2.00000
     25      -0.8650      0.00000
     26      -0.2163      0.00000
     27      -0.2163      0.00000
     28       0.5216      0.00000
     29       0.7046      0.00000
     30       0.7046      0.00000
     31       3.0973      0.00000
     32       3.1738      0.00000


--------------------------------------------------------------------------------------------------------


 soft charge-density along one line, spin component           1
         0         1         2         3         4         5         6         7         8         9
 total charge-density along one line
 
 pseudopotential strength for first ion, spin component:           1
-23.262   0.000   0.000   0.007   0.000   7.438  -0.000  -0.000
  0.000 -23.257   0.000  -0.000   0.007  -0.000   7.435  -0.000
  0.000   0.000 -23.266   0.000  -0.000  -0.000  -0.000   7.440
  0.007  -0.000   0.000 -23.257  -0.000  -0.003   0.000  -0.000
  0.000   0.007  -0.000  -0.000 -23.262  -0.000  -0.003   0.000
  7.438  -0.000  -0.000  -0.003  -0.000   4.139  -0.000   0.000
 -0.000   7.435  -0.000   0.000  -0.003  -0.000   4.140  -0.000
 -0.000  -0.000   7.440  -0.000   0.000   0.000  -0.000   4.139
 -0.003   0.000  -0.000   7.435   0.000   0.001  -0.000  -0.000
 -0.000  -0.003   0.000   0.000   7.438  -0.000   0.001  -0.000
  0.000   0.000  -0.001   0.000  -0.000   0.000   0.000  -0.000
  0.000   0.000   0.001   0.000  -0.000  -0.000  -0.000   0.001
 -0.000  -0.009  -0.000  -0.000  -0.000  -0.000  -0.000  -0.000
 -0.000  -0.000  -0.010   0.000   0.000  -0.000  -0.000  -0.001
 -0.000  -0.000   0.000  -0.009  -0.000   0.000  -0.000   0.000
 -0.000  -0.015  -0.000  -0.000  -0.001  -0.000  -0.002  -0.000
 -0.000  -0.000  -0.016   0.000   0.000  -0.000  -0.000  -0.003
 -0.001  -0.000   0.000  -0.015  -0.000   0.001  -0.000   0.000
 total augmentation occupancy for first ion, spin component:           1
  2.000   0.000   0.000  -0.000   0.000  -0.000   0.000   0.000  -0.000   0.000  -0.000  -0.000   0.000   0.000   0.000   0.000
  0.000   1.999   0.000   0.000  -0.000   0.000  -0.001  -0.000   0.000  -0.000  -0.000   0.000   0.010   0.000   0.000  -0.005
  0.000   0.000   1.999   0.000  -0.000  -0.000  -0.000  -0.001   0.000   0.000  -0.000  -0.000   0.000   0.012   0.000  -0.000
 -0.000   0.000   0.000   1.999   0.000  -0.000  -0.000   0.000  -0.001  -0.000   0.000   0.000   0.000   0.000   0.010   0.000
  0.000  -0.000  -0.000   0.000   2.000   0.000  -0.000   0.000   0.000  -0.000   0.000   0.000   0.000  -0.000   0.000   0.002
 -0.000   0.000  -0.000  -0.000   0.000   0.017   0.000   0.000   0.014   0.000  -0.000  -0.000   0.000  -0.000  -0.029   0.000
 -0.000  -0.001   0.000   0.000  -0.000   0.000   0.027   0.000   0.000   0.014   0.000   0.000  -0.039   0.000   0.000   0.002
 -0.000  -0.000  -0.001  -0.000   0.000  -0.000  -0.000   0.008   0.000   0.000  -0.003   0.001  -0.000   0.004   0.000   0.000
 -0.000  -0.000   0.000  -0.001  -0.000   0.014   0.000   0.000   0.027   0.000   0.000   0.000  -0.000  -0.000  -0.039   0.000
  0.000  -0.000   0.000   0.000  -0.000   0.000   0.014   0.000   0.000   0.017   0.000   0.000  -0.029   0.000   0.000   0.001
 -0.000  -0.000  -0.000  -0.000   0.000  -0.000   0.000  -0.003   0.000   0.000   2.029  -0.019   0.000   0.046  -0.000  -0.000
 -0.000   0.000  -0.000  -0.000   0.000  -0.000  -0.000   0.001   0.000  -0.000  -0.019   0.022   0.000  -0.034   0.000  -0.000
  0.000   0.010   0.000   0.000   0.000   0.000  -0.039  -0.000   0.000  -0.029   0.000   0.000   1.044  -0.000   0.000  -0.059
 -0.000   0.000   0.012  -0.000  -0.000  -0.000   0.000   0.004  -0.000   0.000   0.046  -0.034   0.000   1.035   0.000   0.000
  0.000   0.000   0.000   0.010   0.000  -0.029   0.000  -0.000  -0.039   0.000   0.000   0.000   0.000   0.000   1.044   0.000
  0.000  -0.005  -0.000   0.000   0.002   0.000   0.002  -0.000   0.000   0.001  -0.000  -0.000  -0.059  -0.000   0.000   0.004
 -0.000   0.000  -0.008  -0.000   0.000   0.000   0.000  -0.000   0.000  -0.000  -0.003   0.001   0.000  -0.058   0.000  -0.000
  0.002   0.000   0.000  -0.005   0.000   0.001   0.000   0.000   0.002   0.000   0.000   0.000   0.000  -0.000  -0.059   0.000


------------------------ aborting loop because EDIFF is reached ----------------------------------------





 total charge

# of ion       s       p       d       tot
------------------------------------------
    1        1.604   1.100   9.944  12.649
    2        1.604   1.100   9.944  12.649
    3        1.394   1.932   0.017   3.343
    4        1.381   1.975   0.019   3.375
    5        1.394   1.932   0.017   3.343
--------------------------------------------------
tot          7.378   8.039  19.941  35.357
 
    CHARGE:  cpu time      1.0760: real time      1.0813
    FORLOC:  cpu time      0.0350: real time      0.0356
    FORNL :  cpu time      2.8270: real time      2.8485
    STRESS:  cpu time     24.8850: real time     25.0316
    FORCOR:  cpu time      0.1630: real time      0.1635
    FORHAR:  cpu time      0.0490: real time      0.0634
    MIXING:  cpu time      0.0090: real time      0.0090
    OFIELD:  cpu time      0.0000: real time      0.0001

  FORCE on cell =-STRESS in cart. coord.  units (eV):
  Direction    XX          YY          ZZ          XY          YZ          ZX
  --------------------------------------------------------------------------------------
  Alpha Z    22.73893    22.73893    22.73893
  Ewald   14373.87886 14373.87886-16580.92434    -0.00000     0.00000    -0.00000
  Hartree 15492.42717 15492.42717-14669.88516    -0.00000    -0.00000    -0.00000
  E(xc)    -216.11585  -216.11585  -216.28837    -0.00000     0.00000    -0.00000
  Local  -30833.78156-30833.78159 30281.86089    -0.00002     0.00000    -0.00000
  n-local   540.37230   540.51003   540.70668    -2.08036     0.08005    -3.34108
  augment   184.85335   184.85338   185.00315     0.00002     0.00000    -0.00000
  Kinetic   431.93004   439.19892   436.77437    -9.01477    -0.07354     0.11610
  Fock        0.00000     0.00000     0.00000     0.00000     0.00000     0.00000
  -------------------------------------------------------------------------------------
  Total       0.00654     0.00654    -0.01386     0.00000     0.00000    -0.00000
  in kB       0.02056     0.02056    -0.04356     0.00000     0.00000    -0.00000
  external pressure =       -0.00 kB  Pullay stress =        0.00 kB


 VOLUME and BASIS-vectors are now :
 -----------------------------------------------------------------------------
  energy-cutoff  :      450.00
  volume of cell :      509.78
      direct lattice vectors                 reciprocal lattice vectors
     4.429597435  0.000000000  0.000000000     0.225754149  0.130339219  0.000000000
    -2.214798717  3.836143907  0.000000000     0.000000000  0.260678438  0.000000000
     0.000000000  0.000000000 30.000000000     0.000000000  0.000000000  0.033333333

  length of vectors
     4.429597435  4.429597435 30.000000000     0.260678438  0.260678438  0.033333333


 FORCES acting on ions
    electron-ion (+dipol)            ewald-force                    non-local-force                 convergence-correction
 -----------------------------------------------------------------------------------------------
   -.871E-07 0.728E-07 0.118E+04   -.864E-11 0.498E-11 -.117E+04   0.278E-16 0.139E-16 -.503E+01   0.207E-10 -.120E-10 -.353E-05
   0.871E-07 -.728E-07 -.118E+04   0.865E-11 -.500E-11 0.117E+04   -.208E-16 -.416E-16 0.503E+01   -.207E-10 0.120E-10 0.353E-05
   -.681E-07 -.720E-07 0.878E+03   0.632E-11 -.361E-11 -.884E+03   0.555E-16 -.416E-16 0.573E+01   0.323E-12 -.268E-12 0.474E-05
   -.181E-13 0.206E-13 0.430E-12   0.523E-14 0.238E-14 0.000E+00   0.000E+00 0.000E+00 0.000E+00   -.773E-15 -.190E-14 0.234E-13
   0.681E-07 0.720E-07 -.878E+03   -.632E-11 0.362E-11 0.884E+03   -.833E-16 0.139E-16 -.573E+01   -.325E-12 0.268E-12 -.474E-05
 -----------------------------------------------------------------------------------------------
   -.221E-11 0.211E-11 -.959E-10   0.116E-13 -.916E-14 0.000E+00   -.208E-16 -.555E-16 -.888E-15   0.158E-13 0.312E-14 -.514E-12
 
 
 POSITION                                       TOTAL-FORCE (eV/Angst)
 -----------------------------------------------------------------------------------
      0.00000      2.55743     12.93484        -0.000000      0.000000      0.000172
      2.21480      1.27871     17.06516         0.000000     -0.000000     -0.000172
      2.21480      1.27871     11.21567        -0.000000     -0.000000      0.000324
      0.00000      0.00000     15.00000        -0.000000      0.000000      0.000000
      0.00000      2.55743     18.78433        -0.000000      0.000000     -0.000324
 -----------------------------------------------------------------------------------
    total drift:                               -0.000000      0.000000     -0.000000


--------------------------------------------------------------------------------------------------------



  FREE ENERGIE OF THE ION-ELECTRON SYSTEM (eV)
  ---------------------------------------------------
  free  energy   TOTEN  =       -18.36153389 eV

  energy  without entropy=      -18.36153389  energy(sigma->0) =      -18.36153389
 


--------------------------------------------------------------------------------------------------------


    POTLOK:  cpu time      0.3850: real time      0.3861


--------------------------------------------------------------------------------------------------------


 writing wavefunctions
     LOOP+:  cpu time    731.9610: real time    737.1946
    4ORBIT:  cpu time      0.0000: real time      0.0000



 total charge

# of ion       s       p       d       tot
------------------------------------------
    1        1.604   1.100   9.944  12.649
    2        1.604   1.100   9.944  12.649
    3        1.394   1.932   0.017   3.343
    4        1.381   1.975   0.019   3.375
    5        1.394   1.932   0.017   3.343
--------------------------------------------------
tot          7.378   8.039  19.941  35.357
 

 total amount of memory used by VASP MPI-rank0   351449. kBytes
=======================================================================

   base      :      30000. kBytes
   nonl-proj :     261046. kBytes
   fftplans  :      16554. kBytes
   grid      :      14659. kBytes
   one-center:         77. kBytes
   wavefun   :      29113. kBytes
 
  
  
 General timing and accounting informations for this job:
 ========================================================
  
                  Total CPU time used (sec):      745.449
                            User time (sec):      738.320
                          System time (sec):        7.129
                         Elapsed time (sec):      750.786
  
                   Maximum memory used (kb):      548976.
                   Average memory used (kb):          N/A
  
                          Minor page faults:        37009
                          Major page faults:           18
                 Voluntary context switches:          171
