<?xml version="1.0" encoding="ISO-8859-1"?>
<modeling>
 <generator>
  <i name="program" type="string">vasp </i>
  <i name="version" type="string">6.4.1  </i>
  <i name="subversion" type="string">05Apr23 (build Feb 12 2025 00:37:39) complex                          parallel </i>
  <i name="platform" type="string">LinuxIFC </i>
  <i name="date" type="string">2025 02 14 </i>
  <i name="time" type="string">04:27:58 </i>
 </generator>
 <incar>
  <i type="string" name="SYSTEM">SCF</i>
  <i type="int" name="ISTART">     0</i>
  <i type="int" name="ICHARG">     2</i>
  <i type="int" name="NELM">    60</i>
  <i type="int" name="NELMIN">     6</i>
  <i name="EDIFF">      0.00000100</i>
  <i name="EDIFFG">     -0.00000100</i>
  <i name="ENCUT">    600.00000000</i>
  <i type="string" name="LREAL">Auto</i>
  <i type="int" name="ISMEAR">     0</i>
  <i name="SIGMA">      0.05000000</i>
  <i type="logical" name="LWAVE"> F  </i>
  <i type="logical" name="LCHARG"> F  </i>
 </incar>
 <primitive_cell>
  <structure name="primitive_cell" >
   <crystal>
    <varray name="basis" >
     <v>       2.46723530       0.00000000       0.00000000 </v>
     <v>      -1.23361765       2.13668842       0.00000000 </v>
     <v>       0.00000000       0.00000000      20.00000000 </v>
    </varray>
    <i name="volume">    105.43426209 </i>
    <varray name="rec_basis" >
     <v>       0.40531197       0.23400698       0.00000000 </v>
     <v>       0.00000000       0.46801396       0.00000000 </v>
     <v>       0.00000000       0.00000000       0.05000000 </v>
    </varray>
   </crystal>
   <varray name="positions" >
    <v>       0.00000000       0.00000000       0.50000000 </v>
    <v>       0.66666667       0.33333333       0.50000000 </v>
   </varray>
  </structure>
  <varray name="primitive_index" >
   <v type="int" >        1 </v>
   <v type="int" >       12 </v>
  </varray>
 </primitive_cell>
 <kpoints>
  <generation param="Gamma">
   <v type="int" name="divisions">       7        7        1 </v>
   <v name="usershift">      0.00000000       0.00000000       0.00000000 </v>
   <v name="genvec1">      0.14285714       0.00000000       0.00000000 </v>
   <v name="genvec2">      0.00000000       0.14285714       0.00000000 </v>
   <v name="genvec3">      0.00000000       0.00000000       1.00000000 </v>
   <v name="shift">      0.00000000       0.00000000       0.00000000 </v>
  </generation>
  <varray name="kpointlist" >
   <v>       0.00000000       0.00000000       0.00000000 </v>
   <v>       0.14285714       0.00000000       0.00000000 </v>
   <v>       0.28571429       0.00000000       0.00000000 </v>
   <v>       0.42857143       0.00000000       0.00000000 </v>
   <v>       0.14285714       0.14285714       0.00000000 </v>
   <v>       0.28571429       0.14285714       0.00000000 </v>
   <v>       0.42857143       0.14285714       0.00000000 </v>
   <v>       0.28571429       0.28571429       0.00000000 </v>
  </varray>
  <varray name="weights" >
   <v>       0.02040816 </v>
   <v>       0.12244898 </v>
   <v>       0.12244898 </v>
   <v>       0.12244898 </v>
   <v>       0.12244898 </v>
   <v>       0.24489796 </v>
   <v>       0.12244898 </v>
   <v>       0.12244898 </v>
  </varray>
 </kpoints>
 <parameters>
  <separator name="general" >
   <i type="string" name="SYSTEM">SCF</i>
   <i type="logical" name="LCOMPAT"> F  </i>
  </separator>
  <separator name="electronic" >
   <i type="string" name="PREC">normal</i>
   <i name="ENMAX">    600.00000000</i>
   <i name="ENAUG">    644.87300000</i>
   <i name="EDIFF">      0.00000100</i>
   <i type="int" name="IALGO">    38</i>
   <i type="int" name="IWAVPR">    10</i>
   <i type="int" name="NBANDS">    46</i>
   <i type="int" name="NBANDSLOW">    -1</i>
   <i type="int" name="NBANDSHIGH">    -1</i>
   <i name="NELECT">     72.00000000</i>
   <i type="int" name="TURBO">     0</i>
   <i type="int" name="IRESTART">     0</i>
   <i type="int" name="NREBOOT">     0</i>
   <i type="int" name="NMIN">     0</i>
   <i name="EREF">      0.00000000</i>
   <separator name="electronic smearing" >
    <i type="int" name="ISMEAR">     0</i>
    <i name="SIGMA">      0.05000000</i>
    <i name="KSPACING">      0.50000000</i>
    <i type="logical" name="KGAMMA"> T  </i>
    <i type="logical" name="KBLOWUP"> T  </i>
   </separator>
   <separator name="electronic projectors" >
    <i type="logical" name="LREAL"> T  </i>
    <v name="ROPT">     -0.00050000</v>
    <i type="int" name="LMAXPAW">  -100</i>
    <i type="int" name="LMAXMIX">     2</i>
    <i type="logical" name="NLSPLINE"> F  </i>
   </separator>
   <separator name="electronic startup" >
    <i type="int" name="ISTART">     0</i>
    <i type="int" name="ICHARG">     2</i>
    <i type="int" name="INIWAV">     1</i>
   </separator>
   <separator name="electronic spin" >
    <i type="int" name="ISPIN">     1</i>
    <i type="logical" name="LNONCOLLINEAR"> F  </i>
    <v name="MAGMOM">      1.00000000      1.00000000      1.00000000      1.00000000      1.00000000      1.00000000      1.00000000      1.00000000      1.00000000      1.00000000      1.00000000      1.00000000      1.00000000      1.00000000      1.00000000      1.00000000      1.00000000      1.00000000</v>
    <i name="NUPDOWN">     -1.00000000</i>
    <i type="logical" name="LSORBIT"> F  </i>
    <v name="SAXIS">      0.00000000      0.00000000      1.00000000</v>
    <i type="logical" name="LSPIRAL"> F  </i>
    <v name="QSPIRAL">      0.00000000      0.00000000      0.00000000</v>
    <i type="logical" name="LZEROZ"> F  </i>
   </separator>
   <separator name="electronic exchange-correlation" >
    <i type="logical" name="LASPH"> F  </i>
    <i type="logical" name="LMETAGGA"> F  </i>
   </separator>
   <separator name="electronic convergence" >
    <i type="int" name="NELM">    60</i>
    <i type="int" name="NELMDL">    -5</i>
    <i type="int" name="NELMIN">     6</i>
    <i name="ENINI">    600.00000000</i>
    <separator name="electronic convergence detail" >
     <i type="logical" name="LDIAG"> T  </i>
     <i type="logical" name="LSUBROT"> F  </i>
     <i name="WEIMIN">      0.00000000</i>
     <i name="EBREAK">      0.00000000</i>
     <i name="DEPER">      0.30000000</i>
     <i type="int" name="NRMM">     4</i>
     <i name="TIME">      0.40000000</i>
    </separator>
   </separator>
   <separator name="electronic mixer" >
    <i name="AMIX">      0.40000000</i>
    <i name="BMIX">      1.00000000</i>
    <i name="AMIN">      0.10000000</i>
    <i name="AMIX_MAG">      1.60000000</i>
    <i name="BMIX_MAG">      1.00000000</i>
    <separator name="electronic mixer details" >
     <i type="int" name="IMIX">     4</i>
     <i type="logical" name="MIXFIRST"> F  </i>
     <i type="int" name="MAXMIX">   -45</i>
     <i name="WC">    100.00000000</i>
     <i type="int" name="INIMIX">     1</i>
     <i type="int" name="MIXPRE">     1</i>
     <i type="int" name="MREMOVE">     5</i>
    </separator>
   </separator>
   <separator name="electronic dipolcorrection" >
    <i type="logical" name="LDIPOL"> F  </i>
    <i type="logical" name="LMONO"> F  </i>
    <i type="int" name="IDIPOL">     0</i>
    <i name="EPSILON">      1.00000000</i>
    <v name="DIPOL">   -100.00000000   -100.00000000   -100.00000000</v>
    <i name="EFIELD">      0.00000000</i>
   </separator>
  </separator>
  <separator name="grids" >
   <i type="int" name="NGX">    48</i>
   <i type="int" name="NGY">    48</i>
   <i type="int" name="NGZ">   120</i>
   <i type="int" name="NGXF">    96</i>
   <i type="int" name="NGYF">    96</i>
   <i type="int" name="NGZF">   240</i>
   <i type="logical" name="ADDGRID"> F  </i>
  </separator>
  <separator name="ionic" >
   <i type="int" name="NSW">     0</i>
   <i type="int" name="IBRION">    -1</i>
   <i type="int" name="MDALGO">     0</i>
   <i type="int" name="ISIF">     2</i>
   <i name="PSTRESS">      0.00000000</i>
   <i name="EDIFFG">     -0.00000100</i>
   <i type="int" name="NFREE">     0</i>
   <i name="POTIM">      0.50000000</i>
   <i name="SMASS">     -3.00000000</i>
   <i name="SCALEE">      1.00000000</i>
  </separator>
  <separator name="ionic md" >
   <i name="TEBEG">      0.00010000</i>
   <i name="TEEND">      0.00010000</i>
   <i type="int" name="NBLOCK">     1</i>
   <i type="int" name="KBLOCK">     1</i>
   <i type="int" name="NPACO">   256</i>
   <i name="APACO">     10.00000000</i>
  </separator>
  <separator name="symmetry" >
   <i type="int" name="ISYM">     2</i>
   <i name="SYMPREC">      0.00001000</i>
  </separator>
  <separator name="dos" >
   <i type="int" name="LORBIT">     0</i>
   <v name="RWIGS">     -1.00000000</v>
   <i type="int" name="NEDOS">   301</i>
   <i name="EMIN">     10.00000000</i>
   <i name="EMAX">    -10.00000000</i>
   <i name="EFERMI">      0.00000000</i>
  </separator>
  <separator name="writing" >
   <i type="int" name="NWRITE">     2</i>
   <i type="logical" name="LWAVE"> F  </i>
   <i type="logical" name="LDOWNSAMPLE"> F  </i>
   <i type="logical" name="LCHARG"> F  </i>
   <i type="logical" name="LPARD"> F  </i>
   <i type="logical" name="LVTOT"> F  </i>
   <i type="logical" name="LVHAR"> F  </i>
   <i type="logical" name="LELF"> F  </i>
   <i type="logical" name="LOPTICS"> F  </i>
   <v name="STM">      0.00000000      0.00000000      0.00000000      0.00000000      0.00000000      0.00000000      0.00000000</v>
  </separator>
  <separator name="performance" >
   <i type="int" name="NPAR">     2</i>
   <i type="int" name="NSIM">     4</i>
   <i type="int" name="NBLK">    -1</i>
   <i type="logical" name="LPLANE"> T  </i>
   <i type="logical" name="LSCALAPACK"> T  </i>
   <i type="logical" name="LSCAAWARE"> F  </i>
   <i type="logical" name="LSCALU"> F  </i>
   <i type="logical" name="LASYNC"> F  </i>
   <i type="logical" name="LORBITALREAL"> F  </i>
  </separator>
  <separator name="miscellaneous" >
   <i type="int" name="IDIOT">     3</i>
   <i type="int" name="PHON_NSTRUCT">    -1</i>
   <i type="logical" name="LMUSIC"> F  </i>
   <v name="POMASS">     12.01100000</v>
   <v name="DARWINR">      0.00000000</v>
   <v name="DARWINV">      1.00000000</v>
   <i type="logical" name="LCORR"> T  </i>
  </separator>
  <i type="logical" name="GGA_COMPAT"> T  </i>
  <i type="logical" name="LBERRY"> F  </i>
  <i type="int" name="ICORELEVEL">     0</i>
  <i type="logical" name="LDAU"> F  </i>
  <i type="int" name="I_CONSTRAINED_M">     0</i>
  <separator name="electronic exchange-correlation" >
   <i type="string" name="GGA">--</i>
   <i type="int" name="VOSKOWN">     0</i>
   <i type="logical" name="LHFCALC"> F  </i>
   <i type="string" name="PRECFOCK"></i>
   <i type="logical" name="LSYMGRAD"> F  </i>
   <i type="logical" name="LHFONE"> F  </i>
   <i type="logical" name="LRHFCALC"> F  </i>
   <i type="logical" name="LTHOMAS"> F  </i>
   <i type="logical" name="LMODELHF"> F  </i>
   <i type="logical" name="LFOCKACE"> F  </i>
   <i name="ENCUT4O">     -1.00000000</i>
   <i type="int" name="EXXOEP">     0</i>
   <i type="int" name="FOURORBIT">     0</i>
   <i name="AEXX">      0.00000000</i>
   <i name="HFALPHA">      0.00000000</i>
   <i name="MCALPHA">      0.00000000</i>
   <i name="ALDAX">      1.00000000</i>
   <i name="AGGAX">      1.00000000</i>
   <i name="ALDAC">      1.00000000</i>
   <i name="AGGAC">      1.00000000</i>
   <i type="int" name="NKREDX">     1</i>
   <i type="int" name="NKREDY">     1</i>
   <i type="int" name="NKREDZ">     1</i>
   <i type="logical" name="SHIFTRED"> F  </i>
   <i type="logical" name="ODDONLY"> F  </i>
   <i type="logical" name="EVENONLY"> F  </i>
   <i type="int" name="LMAXFOCK">     0</i>
   <i type="int" name="NMAXFOCKAE">     0</i>
   <i type="logical" name="LFOCKAEDFT"> F  </i>
   <i name="HFSCREEN">      0.00000000</i>
   <i name="HFSCREENC">      0.00000000</i>
   <i type="int" name="NBANDSGWLOW">     0</i>
  </separator>
  <separator name="vdW DFT" >
   <i type="logical" name="LUSE_VDW"> F  </i>
   <i type="int" name="IVDW_NL">     1</i>
   <i type="logical" name="LSPIN_VDW"> F  </i>
   <i name="Zab_VDW">     -0.84910000</i>
   <i name="PARAM1">      0.12340000</i>
   <i name="PARAM2">      1.00000000</i>
   <i name="PARAM3">      0.00000000</i>
  </separator>
  <separator name="model GW" >
   <i type="int" name="MODEL_GW">     0</i>
   <i name="MODEL_EPS0">     31.63027863</i>
   <i name="MODEL_ALPHA">      1.00000000</i>
  </separator>
  <separator name="linear response parameters" >
   <i type="logical" name="LEPSILON"> F  </i>
   <i type="logical" name="LRPA"> F  </i>
   <i type="logical" name="LNABLA"> F  </i>
   <i type="logical" name="LVEL"> F  </i>
   <i name="CSHIFT">      0.10000000</i>
   <i name="OMEGAMAX">     -1.00000000</i>
   <i name="DEG_THRESHOLD">      0.00200000</i>
   <i name="RTIME">     -0.10000000</i>
   <i name="WPLASMAI">      0.00000000</i>
   <v name="DFIELD">      0.00000000      0.00000000      0.00000000</v>
   <v name="WPLASMA">      0.00000000      0.00000000      0.00000000      0.00000000      0.00000000      0.00000000      0.00000000      0.00000000      0.00000000</v>
  </separator>
  <separator name="orbital magnetization" >
   <i type="logical" name="NUCIND"> F  </i>
   <v name="MAGPOS">      0.00000000      0.00000000      0.00000000</v>
   <i type="logical" name="LNICSALL"> T  </i>
   <i type="logical" name="ORBITALMAG"> F  </i>
   <i type="logical" name="LMAGBLOCH"> F  </i>
   <i type="logical" name="LCHIMAG"> F  </i>
   <i type="logical" name="LGAUGE"> T  </i>
   <i type="int" name="MAGATOM">     0</i>
   <v name="MAGDIPOL">      0.00000000      0.00000000      0.00000000</v>
   <v name="AVECCONST">      0.00000000      0.00000000      0.00000000</v>
  </separator>
  <separator name="response functions" >
   <i type="logical" name="LALL_IN_ONE"> F  </i>
   <i type="int" name="IALL_IN_ONE">    -1</i>
   <i type="int" name="NBANDS_WAVE">    -1</i>
   <i type="logical" name="LFINITE_TEMPERATURE"> F  </i>
   <i type="logical" name="LADDER"> F  </i>
   <i type="logical" name="LRPAFORCE"> F  </i>
   <i type="logical" name="LFXC"> F  </i>
   <i type="logical" name="LHARTREE"> T  </i>
   <i type="int" name="IBSE">     0</i>
   <v type="int" name="KPOINT">    -1     0     0     0</v>
   <i type="logical" name="LTCTC"> F  </i>
   <i type="logical" name="LTCTE"> F  </i>
   <i type="logical" name="LTETE"> F  </i>
   <i type="logical" name="LTRIPLET"> F  </i>
   <i type="logical" name="LFXCEPS"> F  </i>
   <i type="logical" name="LFXHEG"> F  </i>
   <i type="int" name="NATURALO">     2</i>
   <i type="logical" name="LHOLEGF"> F  </i>
   <i type="logical" name="L2ORDER"> F  </i>
   <i type="logical" name="LDMP1"> F  </i>
   <i type="logical" name="LMP2LT"> F  </i>
   <i type="logical" name="LSMP2LT"> F  </i>
   <i type="logical" name="LGWLF"> F  </i>
   <i name="ENCUTGW">     -1.60000002</i>
   <i name="ENCUTGWSOFT">     -1.60000002</i>
   <i name="ENCUTLF">     -1.00000000</i>
   <i type="logical" name="LESF_SPLINES"> F  </i>
   <i type="int" name="LMAXMP2">    -1</i>
   <i name="SCISSOR">      0.00000000</i>
   <i type="int" name="NOMEGA">     0</i>
   <i type="int" name="NOMEGAR">     0</i>
   <i type="int" name="NBANDSGW">    -1</i>
   <i type="int" name="NBANDSO">    -1</i>
   <i type="int" name="NBANDSV">    -1</i>
   <i type="int" name="NELMGW">     1</i>
   <i type="int" name="NELMHF">     1</i>
   <i type="int" name="DIM">     3</i>
   <i type="int" name="IESPILON">     4</i>
   <i type="int" name="ANTIRES">     0</i>
   <i name="OMEGAMAX">    -30.00000000</i>
   <i name="OMEGAMIN">    -30.00000000</i>
   <i name="OMEGATL">   -200.00000000</i>
   <i type="int" name="OMEGAGRID">     0</i>
   <i name="CSHIFT">     -0.10000000</i>
   <i type="logical" name="LSELFENERGY"> F  </i>
   <i type="logical" name="LSPECTRAL"> F  </i>
   <i type="logical" name="LSPECTRALGW"> F  </i>
   <i type="logical" name="LSINGLES"> F  </i>
   <i type="logical" name="LFERMIGW"> F  </i>
   <i type="logical" name="ODDONLYGW"> F  </i>
   <i type="logical" name="EVENONLYGW"> F  </i>
   <i type="int" name="NKREDLFX">     1</i>
   <i type="int" name="NKREDLFY">     1</i>
   <i type="int" name="NKREDLFZ">     1</i>
   <i type="int" name="MAXMEM">  2800</i>
   <i type="int" name="TELESCOPE">     0</i>
   <i type="int" name="NTAUPAR">    -1</i>
   <i type="int" name="NOMEGAPAR">    -1</i>
   <i name="DAMP_NEWTON">      0.80000001</i>
   <i name="LAMBDA">      1.00000000</i>
  </separator>
  <separator name="External order field" >
   <i name="OFIELD_KAPPA">      0.00000000</i>
   <v name="OFIELD_K">      0.00000000      0.00000000      0.00000000</v>
   <i name="OFIELD_Q6_NEAR">      0.00000000</i>
   <i name="OFIELD_Q6_FAR">      0.00000000</i>
   <i name="OFIELD_A">      0.00000000</i>
  </separator>
  <separator name="optional k-points parameters" >
   <i type="int" name="KPOINTS_OPT_MODE">     1</i>
   <i type="logical" name="LKPOINTS_OPT"> F  </i>
  </separator>
 </parameters>
 <atominfo>
  <atoms>      18 </atoms>
  <types>       1 </types>
  <array name="atoms" >
   <dimension dim="1">ion</dimension>
   <field type="string">element</field>
   <field type="int">atomtype</field>
   <set>
    <rc><c>C </c><c>   1</c></rc>
    <rc><c>C </c><c>   1</c></rc>
    <rc><c>C </c><c>   1</c></rc>
    <rc><c>C </c><c>   1</c></rc>
    <rc><c>C </c><c>   1</c></rc>
    <rc><c>C </c><c>   1</c></rc>
    <rc><c>C </c><c>   1</c></rc>
    <rc><c>C </c><c>   1</c></rc>
    <rc><c>C </c><c>   1</c></rc>
    <rc><c>C </c><c>   1</c></rc>
    <rc><c>C </c><c>   1</c></rc>
    <rc><c>C </c><c>   1</c></rc>
    <rc><c>C </c><c>   1</c></rc>
    <rc><c>C </c><c>   1</c></rc>
    <rc><c>C </c><c>   1</c></rc>
    <rc><c>C </c><c>   1</c></rc>
    <rc><c>C </c><c>   1</c></rc>
    <rc><c>C </c><c>   1</c></rc>
   </set>
  </array>
  <array name="atomtypes" >
   <dimension dim="1">type</dimension>
   <field type="int">atomspertype</field>
   <field type="string">element</field>
   <field>mass</field>
   <field>valence</field>
   <field type="string">pseudopotential</field>
   <set>
    <rc><c>  18</c><c>C </c><c>     12.01100000</c><c>      4.00000000</c><c>  PAW_PBE C 08Apr2002                   </c></rc>
   </set>
  </array>
 </atominfo>
 <structure name="initialpos" >
  <crystal>
   <varray name="basis" >
    <v>       7.40170591       0.00000000       0.00000000 </v>
    <v>      -3.70085295       6.41006527       0.00000000 </v>
    <v>       0.00000000       0.00000000      20.00000000 </v>
   </varray>
   <i name="volume">    948.90835877 </i>
   <varray name="rec_basis" >
    <v>       0.13510399       0.07800233       0.00000000 </v>
    <v>       0.00000000       0.15600465       0.00000000 </v>
    <v>       0.00000000       0.00000000       0.05000000 </v>
   </varray>
  </crystal>
  <varray name="positions" >
   <v>       0.00000000       0.00000000       0.50000000 </v>
   <v>       0.33333333       0.00000000       0.50000000 </v>
   <v>       0.66666667       0.00000000       0.50000000 </v>
   <v>       0.00000000       0.33333333       0.50000000 </v>
   <v>       0.33333333       0.33333333       0.50000000 </v>
   <v>       0.66666667       0.33333333       0.50000000 </v>
   <v>       0.00000000       0.66666667       0.50000000 </v>
   <v>       0.33333333       0.66666667       0.50000000 </v>
   <v>       0.66666667       0.66666667       0.50000000 </v>
   <v>       0.22222222       0.11111111       0.50000000 </v>
   <v>       0.55555556       0.11111111       0.50000000 </v>
   <v>       0.88888889       0.11111111       0.50000000 </v>
   <v>       0.22222222       0.44444444       0.50000000 </v>
   <v>       0.55555556       0.44444444       0.50000000 </v>
   <v>       0.88888889       0.44444444       0.50000000 </v>
   <v>       0.22222222       0.77777778       0.50000000 </v>
   <v>       0.55555556       0.77777778       0.50000000 </v>
   <v>       0.88888889       0.77777778       0.50000000 </v>
  </varray>
 </structure>
 <calculation>
  <scstep>
   <time name="dav">    1.89    1.95</time>
   <time name="total">    1.97    2.05</time>
   <energy>
    <i name="alphaZ">     28.04858418 </i>
    <i name="ewald">  11638.85095605 </i>
    <i name="hartreedc"> -13553.17198717 </i>
    <i name="XCdc">    237.17740026 </i>
    <i name="pawpsdc">   1953.39683484 </i>
    <i name="pawaedc">  -1963.64613940 </i>
    <i name="eentropy">     -0.00795062 </i>
    <i name="bandstr">   -242.76306768 </i>
    <i name="atom">   2648.70517965 </i>
    <i name="e_fr_energy">    746.58981011 </i>
    <i name="e_wo_entrp">    746.59776073 </i>
    <i name="e_0_energy">    746.59378542 </i>
   </energy>
  </scstep>
  <scstep>
   <time name="dav">    2.58    2.68</time>
   <time name="total">    2.58    2.68</time>
   <energy>
    <i name="e_fr_energy">    -20.19289541 </i>
    <i name="e_wo_entrp">    -20.19289481 </i>
    <i name="e_0_energy">    -20.19289511 </i>
   </energy>
  </scstep>
  <scstep>
   <time name="dav">    2.00    2.07</time>
   <time name="total">    2.00    2.07</time>
   <energy>
    <i name="e_fr_energy">   -172.09797037 </i>
    <i name="e_wo_entrp">   -172.09667344 </i>
    <i name="e_0_energy">   -172.09732191 </i>
   </energy>
  </scstep>
  <scstep>
   <time name="dav">    2.02    2.09</time>
   <time name="total">    2.02    2.09</time>
   <energy>
    <i name="e_fr_energy">   -177.34481421 </i>
    <i name="e_wo_entrp">   -177.34252053 </i>
    <i name="e_0_energy">   -177.34366737 </i>
   </energy>
  </scstep>
  <scstep>
   <time name="dav">    2.28    2.37</time>
   <time name="total">    2.38    2.47</time>
   <energy>
    <i name="e_fr_energy">   -177.48803581 </i>
    <i name="e_wo_entrp">   -177.48573299 </i>
    <i name="e_0_energy">   -177.48688440 </i>
   </energy>
  </scstep>
  <scstep>
   <time name="dav">    1.91    1.98</time>
   <time name="total">    2.09    2.17</time>
   <energy>
    <i name="e_fr_energy">   -169.32235746 </i>
    <i name="e_wo_entrp">   -169.32005464 </i>
    <i name="e_0_energy">   -169.32120605 </i>
   </energy>
  </scstep>
  <scstep>
   <time name="dav">    1.89    1.96</time>
   <time name="total">    2.07    2.14</time>
   <energy>
    <i name="e_fr_energy">   -166.15362691 </i>
    <i name="e_wo_entrp">   -166.15132410 </i>
    <i name="e_0_energy">   -166.15247550 </i>
   </energy>
  </scstep>
  <scstep>
   <time name="dav">    1.92    2.00</time>
   <time name="total">    2.11    2.19</time>
   <energy>
    <i name="e_fr_energy">   -166.09100356 </i>
    <i name="e_wo_entrp">   -166.08870075 </i>
    <i name="e_0_energy">   -166.08985215 </i>
   </energy>
  </scstep>
  <scstep>
   <time name="dav">    2.11    2.19</time>
   <time name="total">    2.30    2.38</time>
   <energy>
    <i name="e_fr_energy">   -166.07879948 </i>
    <i name="e_wo_entrp">   -166.07649666 </i>
    <i name="e_0_energy">   -166.07764807 </i>
   </energy>
  </scstep>
  <scstep>
   <time name="dav">    1.86    1.93</time>
   <time name="total">    2.04    2.12</time>
   <energy>
    <i name="e_fr_energy">   -166.06003853 </i>
    <i name="e_wo_entrp">   -166.05773572 </i>
    <i name="e_0_energy">   -166.05888713 </i>
   </energy>
  </scstep>
  <scstep>
   <time name="dav">    1.83    1.89</time>
   <time name="total">    2.02    2.09</time>
   <energy>
    <i name="e_fr_energy">   -166.06390981 </i>
    <i name="e_wo_entrp">   -166.06160700 </i>
    <i name="e_0_energy">   -166.06275841 </i>
   </energy>
  </scstep>
  <scstep>
   <time name="dav">    1.79    1.86</time>
   <time name="total">    1.98    0.89</time>
   <energy>
    <i name="e_fr_energy">   -166.06896534 </i>
    <i name="e_wo_entrp">   -166.06666253 </i>
    <i name="e_0_energy">   -166.06781394 </i>
   </energy>
  </scstep>
  <scstep>
   <time name="dav">    1.88    1.95</time>
   <time name="total">    2.07    2.15</time>
   <energy>
    <i name="e_fr_energy">   -166.07272707 </i>
    <i name="e_wo_entrp">   -166.07042425 </i>
    <i name="e_0_energy">   -166.07157566 </i>
   </energy>
  </scstep>
  <scstep>
   <time name="dav">    1.81    1.87</time>
   <time name="total">    1.99    2.06</time>
   <energy>
    <i name="e_fr_energy">   -166.07692218 </i>
    <i name="e_wo_entrp">   -166.07461937 </i>
    <i name="e_0_energy">   -166.07577077 </i>
   </energy>
  </scstep>
  <scstep>
   <time name="dav">    1.99    2.07</time>
   <time name="total">    2.18    2.26</time>
   <energy>
    <i name="e_fr_energy">   -166.07769608 </i>
    <i name="e_wo_entrp">   -166.07539326 </i>
    <i name="e_0_energy">   -166.07654467 </i>
   </energy>
  </scstep>
  <scstep>
   <time name="dav">    1.84    1.90</time>
   <time name="total">    2.02    2.10</time>
   <energy>
    <i name="e_fr_energy">   -166.07781219 </i>
    <i name="e_wo_entrp">   -166.07550938 </i>
    <i name="e_0_energy">   -166.07666079 </i>
   </energy>
  </scstep>
  <scstep>
   <time name="dav">    1.81    1.88</time>
   <time name="total">    1.99    2.07</time>
   <energy>
    <i name="e_fr_energy">   -166.07788993 </i>
    <i name="e_wo_entrp">   -166.07558711 </i>
    <i name="e_0_energy">   -166.07673852 </i>
   </energy>
  </scstep>
  <scstep>
   <time name="dav">    1.63    1.70</time>
   <time name="total">    1.82    1.89</time>
   <energy>
    <i name="e_fr_energy">   -166.07792662 </i>
    <i name="e_wo_entrp">   -166.07562381 </i>
    <i name="e_0_energy">   -166.07677521 </i>
   </energy>
  </scstep>
  <scstep>
   <time name="dav">    1.55    1.61</time>
   <time name="total">    1.73    1.80</time>
   <energy>
    <i name="e_fr_energy">   -166.07793889 </i>
    <i name="e_wo_entrp">   -166.07563608 </i>
    <i name="e_0_energy">   -166.07678749 </i>
   </energy>
  </scstep>
  <scstep>
   <time name="dav">    1.27    1.32</time>
   <time name="total">    1.46    1.52</time>
   <energy>
    <i name="e_fr_energy">   -166.07794295 </i>
    <i name="e_wo_entrp">   -166.07564013 </i>
    <i name="e_0_energy">   -166.07679154 </i>
   </energy>
  </scstep>
  <scstep>
   <time name="dav">    1.38    1.43</time>
   <time name="total">    1.46    1.52</time>
   <energy>
    <i name="alphaZ">     28.04858418 </i>
    <i name="ewald">  11638.85095605 </i>
    <i name="hartreedc"> -13861.50492450 </i>
    <i name="XCdc">    247.81379879 </i>
    <i name="pawpsdc">   7452.71963580 </i>
    <i name="pawaedc">  -7464.98292810 </i>
    <i name="eentropy">     -0.00230281 </i>
    <i name="bandstr">   -855.72594217 </i>
    <i name="atom">   2648.70517965 </i>
    <i name="e_fr_energy">   -166.07794310 </i>
    <i name="e_wo_entrp">   -166.07564029 </i>
    <i name="e_0_energy">   -166.07679170 </i>
   </energy>
  </scstep>
  <structure>
   <crystal>
    <varray name="basis" >
     <v>       7.40170591       0.00000000       0.00000000 </v>
     <v>      -3.70085295       6.41006527       0.00000000 </v>
     <v>       0.00000000       0.00000000      20.00000000 </v>
    </varray>
    <i name="volume">    948.90835877 </i>
    <varray name="rec_basis" >
     <v>       0.13510399       0.07800233       0.00000000 </v>
     <v>       0.00000000       0.15600465       0.00000000 </v>
     <v>       0.00000000       0.00000000       0.05000000 </v>
    </varray>
   </crystal>
   <varray name="positions" >
    <v>       0.00000000       0.00000000       0.50000000 </v>
    <v>       0.33333333       0.00000000       0.50000000 </v>
    <v>       0.66666667       0.00000000       0.50000000 </v>
    <v>       0.00000000       0.33333333       0.50000000 </v>
    <v>       0.33333333       0.33333333       0.50000000 </v>
    <v>       0.66666667       0.33333333       0.50000000 </v>
    <v>       0.00000000       0.66666667       0.50000000 </v>
    <v>       0.33333333       0.66666667       0.50000000 </v>
    <v>       0.66666667       0.66666667       0.50000000 </v>
    <v>       0.22222222       0.11111111       0.50000000 </v>
    <v>       0.55555556       0.11111111       0.50000000 </v>
    <v>       0.88888889       0.11111111       0.50000000 </v>
    <v>       0.22222222       0.44444444       0.50000000 </v>
    <v>       0.55555556       0.44444444       0.50000000 </v>
    <v>       0.88888889       0.44444444       0.50000000 </v>
    <v>       0.22222222       0.77777778       0.50000000 </v>
    <v>       0.55555556       0.77777778       0.50000000 </v>
    <v>       0.88888889       0.77777778       0.50000000 </v>
   </varray>
  </structure>
  <varray name="forces" >
   <v>      -0.00000000      -0.00000000       0.00000000 </v>
   <v>      -0.00000000      -0.00000000       0.00000000 </v>
   <v>      -0.00000000      -0.00000000      -0.00000000 </v>
   <v>       0.00000000      -0.00000000      -0.00000000 </v>
   <v>       0.00000000       0.00000000       0.00000000 </v>
   <v>       0.00000000      -0.00000000      -0.00000000 </v>
   <v>      -0.00000000      -0.00000000       0.00000000 </v>
   <v>      -0.00000000      -0.00000000       0.00000000 </v>
   <v>      -0.00000000      -0.00000000      -0.00000000 </v>
   <v>      -0.00000000       0.00000000      -0.00000000 </v>
   <v>       0.00000000      -0.00000000       0.00000000 </v>
   <v>      -0.00000000       0.00000000      -0.00000000 </v>
   <v>       0.00000000       0.00000000      -0.00000000 </v>
   <v>       0.00000000       0.00000000      -0.00000000 </v>
   <v>      -0.00000000       0.00000000      -0.00000000 </v>
   <v>       0.00000000       0.00000000       0.00000000 </v>
   <v>       0.00000000       0.00000000       0.00000000 </v>
   <v>       0.00000000      -0.00000000      -0.00000000 </v>
  </varray>
  <varray name="stress" >
   <v>      -0.16802071      -0.00000000       0.00000000 </v>
   <v>      -0.00000000      -0.16802070      -0.00000000 </v>
   <v>       0.00000000       0.00000000      -0.56822338 </v>
  </varray>
  <energy>
   <i name="e_fr_energy">   -166.07794310 </i>
   <i name="e_wo_entrp">   -166.07564029 </i>
   <i name="e_0_energy">   -166.07679170 </i>
  </energy>
  <time name="totalsc">   44.13   44.61</time>
  <eigenvalues>
   <array>
    <dimension dim="1">band</dimension>
    <dimension dim="2">kpoint</dimension>
    <dimension dim="3">spin</dimension>
    <field>eigene</field>
    <field>occ</field>
    <set>
     <set comment="spin 1">
      <set comment="kpoint 1">
       <r>  -22.2559    1.0000 </r>
       <r>  -19.6733    1.0000 </r>
       <r>  -19.6733    1.0000 </r>
       <r>  -19.6733    1.0000 </r>
       <r>  -19.6733    1.0000 </r>
       <r>  -19.6733    1.0000 </r>
       <r>  -19.6733    1.0000 </r>
       <r>  -15.3408    1.0000 </r>
       <r>  -15.3408    1.0000 </r>
       <r>  -15.3407    1.0000 </r>
       <r>  -15.3407    1.0000 </r>
       <r>  -13.2896    1.0000 </r>
       <r>  -13.2896    1.0000 </r>
       <r>  -12.3747    1.0000 </r>
       <r>  -12.3747    1.0000 </r>
       <r>  -12.3747    1.0000 </r>
       <r>  -12.3747    1.0000 </r>
       <r>  -12.3747    1.0000 </r>
       <r>  -12.3747    1.0000 </r>
       <r>  -10.3598    1.0000 </r>
       <r>   -8.5236    1.0000 </r>
       <r>   -8.5236    1.0000 </r>
       <r>   -8.5236    1.0000 </r>
       <r>   -8.5236    1.0000 </r>
       <r>   -8.5236    1.0000 </r>
       <r>   -8.5236    1.0000 </r>
       <r>   -7.3709    1.0000 </r>
       <r>   -7.3709    1.0000 </r>
       <r>   -7.3709    1.0000 </r>
       <r>   -7.3709    1.0000 </r>
       <r>   -7.3709    1.0000 </r>
       <r>   -7.3709    1.0000 </r>
       <r>   -5.7847    1.0000 </r>
       <r>   -5.7847    1.0000 </r>
       <r>   -2.7553    0.5000 </r>
       <r>   -2.7553    0.5000 </r>
       <r>   -2.7553    0.5000 </r>
       <r>   -2.7553    0.5000 </r>
       <r>    0.5198    0.0000 </r>
       <r>    1.3125    0.0000 </r>
       <r>    1.6367    0.0000 </r>
       <r>    2.1443    0.0000 </r>
       <r>    2.1443    0.0000 </r>
       <r>    2.1443    0.0000 </r>
       <r>    2.1443    0.0000 </r>
       <r>    2.1443    0.0000 </r>
      </set>
      <set comment="kpoint 2">
       <r>  -22.2023    1.0000 </r>
       <r>  -20.3489    1.0000 </r>
       <r>  -19.9842    1.0000 </r>
       <r>  -19.9842    1.0000 </r>
       <r>  -19.2625    1.0000 </r>
       <r>  -19.2625    1.0000 </r>
       <r>  -18.9062    1.0000 </r>
       <r>  -15.9953    1.0000 </r>
       <r>  -15.9953    1.0000 </r>
       <r>  -14.9132    1.0000 </r>
       <r>  -14.9132    1.0000 </r>
       <r>  -13.5976    1.0000 </r>
       <r>  -12.9702    1.0000 </r>
       <r>  -12.9702    1.0000 </r>
       <r>  -12.9564    1.0000 </r>
       <r>  -12.9564    1.0000 </r>
       <r>  -11.7352    1.0000 </r>
       <r>  -11.7352    1.0000 </r>
       <r>  -11.1177    1.0000 </r>
       <r>  -10.2959    1.0000 </r>
       <r>   -8.8634    1.0000 </r>
       <r>   -8.8634    1.0000 </r>
       <r>   -8.8292    1.0000 </r>
       <r>   -8.5096    1.0000 </r>
       <r>   -8.5096    1.0000 </r>
       <r>   -8.1319    1.0000 </r>
       <r>   -8.1270    1.0000 </r>
       <r>   -7.7134    1.0000 </r>
       <r>   -7.7134    1.0000 </r>
       <r>   -6.9228    1.0000 </r>
       <r>   -6.9228    1.0000 </r>
       <r>   -6.5570    1.0000 </r>
       <r>   -6.0049    1.0000 </r>
       <r>   -5.9004    1.0000 </r>
       <r>   -3.5266    1.0000 </r>
       <r>   -3.5266    1.0000 </r>
       <r>   -2.0046    0.0000 </r>
       <r>   -2.0046    0.0000 </r>
       <r>    0.5924    0.0000 </r>
       <r>    0.8750    0.0000 </r>
       <r>    1.3861    0.0000 </r>
       <r>    1.4739    0.0000 </r>
       <r>    1.4739    0.0000 </r>
       <r>    1.7111    0.0000 </r>
       <r>    2.6287    0.0000 </r>
       <r>    2.7614    0.0000 </r>
      </set>
      <set comment="kpoint 3">
       <r>  -22.0418    1.0000 </r>
       <r>  -20.9265    1.0000 </r>
       <r>  -20.1927    1.0000 </r>
       <r>  -20.1927    1.0000 </r>
       <r>  -18.7553    1.0000 </r>
       <r>  -18.7553    1.0000 </r>
       <r>  -18.0629    1.0000 </r>
       <r>  -16.7452    1.0000 </r>
       <r>  -16.7452    1.0000 </r>
       <r>  -14.7531    1.0000 </r>
       <r>  -14.6244    1.0000 </r>
       <r>  -14.6244    1.0000 </r>
       <r>  -13.4994    1.0000 </r>
       <r>  -13.4994    1.0000 </r>
       <r>  -12.1838    1.0000 </r>
       <r>  -12.1838    1.0000 </r>
       <r>  -11.0980    1.0000 </r>
       <r>  -11.0980    1.0000 </r>
       <r>  -10.1046    1.0000 </r>
       <r>   -9.8601    1.0000 </r>
       <r>   -9.4952    1.0000 </r>
       <r>   -9.4952    1.0000 </r>
       <r>   -9.0381    1.0000 </r>
       <r>   -8.7917    1.0000 </r>
       <r>   -8.7612    1.0000 </r>
       <r>   -8.7612    1.0000 </r>
       <r>   -7.9447    1.0000 </r>
       <r>   -7.9447    1.0000 </r>
       <r>   -7.6714    1.0000 </r>
       <r>   -6.6226    1.0000 </r>
       <r>   -6.3775    1.0000 </r>
       <r>   -6.3775    1.0000 </r>
       <r>   -6.2170    1.0000 </r>
       <r>   -5.7649    1.0000 </r>
       <r>   -4.2990    1.0000 </r>
       <r>   -4.2990    1.0000 </r>
       <r>   -1.2827    0.0000 </r>
       <r>   -1.2827    0.0000 </r>
       <r>   -0.2379    0.0000 </r>
       <r>    0.7878    0.0000 </r>
       <r>    0.7878    0.0000 </r>
       <r>    0.8104    0.0000 </r>
       <r>    1.6068    0.0000 </r>
       <r>    1.9346    0.0000 </r>
       <r>    2.3342    0.0000 </r>
       <r>    2.8500    0.0000 </r>
      </set>
      <set comment="kpoint 4">
       <r>  -21.7749    1.0000 </r>
       <r>  -21.4027    1.0000 </r>
       <r>  -20.2972    1.0000 </r>
       <r>  -20.2972    1.0000 </r>
       <r>  -18.1581    1.0000 </r>
       <r>  -18.1581    1.0000 </r>
       <r>  -17.4814    1.0000 </r>
       <r>  -17.4814    1.0000 </r>
       <r>  -17.2289    1.0000 </r>
       <r>  -15.7457    1.0000 </r>
       <r>  -14.3222    1.0000 </r>
       <r>  -14.3222    1.0000 </r>
       <r>  -13.9511    1.0000 </r>
       <r>  -13.9511    1.0000 </r>
       <r>  -11.2586    1.0000 </r>
       <r>  -11.2586    1.0000 </r>
       <r>  -10.5973    1.0000 </r>
       <r>  -10.5973    1.0000 </r>
       <r>  -10.3279    1.0000 </r>
       <r>  -10.3279    1.0000 </r>
       <r>   -9.7877    1.0000 </r>
       <r>   -9.3483    1.0000 </r>
       <r>   -9.1440    1.0000 </r>
       <r>   -9.0904    1.0000 </r>
       <r>   -9.0904    1.0000 </r>
       <r>   -8.6463    1.0000 </r>
       <r>   -8.0611    1.0000 </r>
       <r>   -8.0611    1.0000 </r>
       <r>   -7.5385    1.0000 </r>
       <r>   -7.1688    1.0000 </r>
       <r>   -6.6646    1.0000 </r>
       <r>   -5.7470    1.0000 </r>
       <r>   -5.7470    1.0000 </r>
       <r>   -5.1980    1.0000 </r>
       <r>   -5.0473    1.0000 </r>
       <r>   -5.0473    1.0000 </r>
       <r>   -0.9700    0.0000 </r>
       <r>   -0.5847    0.0000 </r>
       <r>   -0.5847    0.0000 </r>
       <r>    0.1019    0.0000 </r>
       <r>    0.1019    0.0000 </r>
       <r>    1.1736    0.0000 </r>
       <r>    1.6818    0.0000 </r>
       <r>    1.9742    0.0000 </r>
       <r>    2.3070    0.0000 </r>
       <r>    2.4871    0.0000 </r>
      </set>
      <set comment="kpoint 5">
       <r>  -22.0952    1.0000 </r>
       <r>  -20.6109    1.0000 </r>
       <r>  -20.6109    1.0000 </r>
       <r>  -19.5194    1.0000 </r>
       <r>  -19.5194    1.0000 </r>
       <r>  -18.4549    1.0000 </r>
       <r>  -18.4549    1.0000 </r>
       <r>  -16.7787    1.0000 </r>
       <r>  -16.1617    1.0000 </r>
       <r>  -15.2404    1.0000 </r>
       <r>  -14.2550    1.0000 </r>
       <r>  -14.1586    1.0000 </r>
       <r>  -14.1586    1.0000 </r>
       <r>  -12.6047    1.0000 </r>
       <r>  -12.3072    1.0000 </r>
       <r>  -12.3072    1.0000 </r>
       <r>  -12.2712    1.0000 </r>
       <r>  -10.4864    1.0000 </r>
       <r>  -10.4864    1.0000 </r>
       <r>  -10.1683    1.0000 </r>
       <r>   -9.1765    1.0000 </r>
       <r>   -9.1765    1.0000 </r>
       <r>   -9.1237    1.0000 </r>
       <r>   -9.1237    1.0000 </r>
       <r>   -8.4260    1.0000 </r>
       <r>   -8.4260    1.0000 </r>
       <r>   -8.0747    1.0000 </r>
       <r>   -8.0747    1.0000 </r>
       <r>   -7.1908    1.0000 </r>
       <r>   -7.1908    1.0000 </r>
       <r>   -6.4085    1.0000 </r>
       <r>   -6.1319    1.0000 </r>
       <r>   -6.1044    1.0000 </r>
       <r>   -6.1044    1.0000 </r>
       <r>   -4.2578    1.0000 </r>
       <r>   -3.8994    1.0000 </r>
       <r>   -1.7104    0.0000 </r>
       <r>   -1.2651    0.0000 </r>
       <r>    0.2731    0.0000 </r>
       <r>    0.2731    0.0000 </r>
       <r>    0.7377    0.0000 </r>
       <r>    1.5332    0.0000 </r>
       <r>    1.8601    0.0000 </r>
       <r>    2.0118    0.0000 </r>
       <r>    2.0118    0.0000 </r>
       <r>    2.7763    0.0000 </r>
      </set>
      <set comment="kpoint 6">
       <r>  -21.8815    1.0000 </r>
       <r>  -21.1378    1.0000 </r>
       <r>  -20.7687    1.0000 </r>
       <r>  -19.6744    1.0000 </r>
       <r>  -18.9580    1.0000 </r>
       <r>  -17.9166    1.0000 </r>
       <r>  -17.5935    1.0000 </r>
       <r>  -17.5730    1.0000 </r>
       <r>  -16.6712    1.0000 </r>
       <r>  -15.2538    1.0000 </r>
       <r>  -15.2501    1.0000 </r>
       <r>  -14.6349    1.0000 </r>
       <r>  -13.7273    1.0000 </r>
       <r>  -12.8211    1.0000 </r>
       <r>  -11.8987    1.0000 </r>
       <r>  -11.6827    1.0000 </r>
       <r>  -11.3889    1.0000 </r>
       <r>  -10.0395    1.0000 </r>
       <r>   -9.9166    1.0000 </r>
       <r>   -9.9142    1.0000 </r>
       <r>   -9.7108    1.0000 </r>
       <r>   -9.6303    1.0000 </r>
       <r>   -9.2826    1.0000 </r>
       <r>   -9.2646    1.0000 </r>
       <r>   -9.0375    1.0000 </r>
       <r>   -8.6067    1.0000 </r>
       <r>   -8.2589    1.0000 </r>
       <r>   -7.5789    1.0000 </r>
       <r>   -7.3542    1.0000 </r>
       <r>   -7.1429    1.0000 </r>
       <r>   -6.5675    1.0000 </r>
       <r>   -6.5470    1.0000 </r>
       <r>   -5.5815    1.0000 </r>
       <r>   -5.3855    1.0000 </r>
       <r>   -5.0742    1.0000 </r>
       <r>   -4.4329    1.0000 </r>
       <r>   -1.2965    0.0000 </r>
       <r>   -0.6851    0.0000 </r>
       <r>   -0.4248    0.0000 </r>
       <r>   -0.2983    0.0000 </r>
       <r>    1.0284    0.0000 </r>
       <r>    1.2243    0.0000 </r>
       <r>    1.8273    0.0000 </r>
       <r>    2.0448    0.0000 </r>
       <r>    2.1580    0.0000 </r>
       <r>    2.4029    0.0000 </r>
      </set>
      <set comment="kpoint 7">
       <r>  -21.5620    1.0000 </r>
       <r>  -21.5620    1.0000 </r>
       <r>  -20.8214    1.0000 </r>
       <r>  -19.7262    1.0000 </r>
       <r>  -18.3060    1.0000 </r>
       <r>  -18.3060    1.0000 </r>
       <r>  -17.3075    1.0000 </r>
       <r>  -17.3075    1.0000 </r>
       <r>  -16.9870    1.0000 </r>
       <r>  -15.9391    1.0000 </r>
       <r>  -15.0097    1.0000 </r>
       <r>  -15.0097    1.0000 </r>
       <r>  -13.2820    1.0000 </r>
       <r>  -13.2820    1.0000 </r>
       <r>  -11.3580    1.0000 </r>
       <r>  -10.9879    1.0000 </r>
       <r>  -10.9879    1.0000 </r>
       <r>  -10.5000    1.0000 </r>
       <r>  -10.5000    1.0000 </r>
       <r>   -9.9054    1.0000 </r>
       <r>   -9.6351    1.0000 </r>
       <r>   -9.5358    1.0000 </r>
       <r>   -9.5358    1.0000 </r>
       <r>   -9.3360    1.0000 </r>
       <r>   -8.6672    1.0000 </r>
       <r>   -8.4186    1.0000 </r>
       <r>   -8.1250    1.0000 </r>
       <r>   -8.1250    1.0000 </r>
       <r>   -7.4090    1.0000 </r>
       <r>   -7.0535    1.0000 </r>
       <r>   -7.0535    1.0000 </r>
       <r>   -5.8557    1.0000 </r>
       <r>   -5.8557    1.0000 </r>
       <r>   -5.0628    1.0000 </r>
       <r>   -5.0125    1.0000 </r>
       <r>   -5.0125    1.0000 </r>
       <r>   -1.0891    0.0000 </r>
       <r>   -0.8231    0.0000 </r>
       <r>   -0.8231    0.0000 </r>
       <r>    0.4106    0.0000 </r>
       <r>    0.4106    0.0000 </r>
       <r>    1.4643    0.0000 </r>
       <r>    1.4643    0.0000 </r>
       <r>    2.2677    0.0000 </r>
       <r>    2.2677    0.0000 </r>
       <r>    2.6049    0.0000 </r>
      </set>
      <set comment="kpoint 8">
       <r>  -21.6152    1.0000 </r>
       <r>  -21.2437    1.0000 </r>
       <r>  -21.2437    1.0000 </r>
       <r>  -19.0600    1.0000 </r>
       <r>  -19.0600    1.0000 </r>
       <r>  -18.3557    1.0000 </r>
       <r>  -17.0888    1.0000 </r>
       <r>  -17.0888    1.0000 </r>
       <r>  -16.7115    1.0000 </r>
       <r>  -15.6766    1.0000 </r>
       <r>  -15.6143    1.0000 </r>
       <r>  -15.6143    1.0000 </r>
       <r>  -12.9180    1.0000 </r>
       <r>  -12.2633    1.0000 </r>
       <r>  -12.2633    1.0000 </r>
       <r>  -11.3541    1.0000 </r>
       <r>  -10.5573    1.0000 </r>
       <r>  -10.5494    1.0000 </r>
       <r>  -10.5494    1.0000 </r>
       <r>   -9.8196    1.0000 </r>
       <r>   -9.8196    1.0000 </r>
       <r>   -9.5986    1.0000 </r>
       <r>   -9.1610    1.0000 </r>
       <r>   -9.1610    1.0000 </r>
       <r>   -8.8220    1.0000 </r>
       <r>   -8.8220    1.0000 </r>
       <r>   -7.8829    1.0000 </r>
       <r>   -7.6861    1.0000 </r>
       <r>   -7.6861    1.0000 </r>
       <r>   -7.0825    1.0000 </r>
       <r>   -6.6647    1.0000 </r>
       <r>   -6.6647    1.0000 </r>
       <r>   -5.8935    1.0000 </r>
       <r>   -5.0051    1.0000 </r>
       <r>   -5.0051    1.0000 </r>
       <r>   -4.6730    1.0000 </r>
       <r>   -1.2276    0.0000 </r>
       <r>   -1.0246    0.0000 </r>
       <r>   -1.0246    0.0000 </r>
       <r>    0.5283    0.0000 </r>
       <r>    1.3918    0.0000 </r>
       <r>    1.4824    0.0000 </r>
       <r>    1.4824    0.0000 </r>
       <r>    1.9003    0.0000 </r>
       <r>    1.9003    0.0000 </r>
       <r>    2.1945    0.0000 </r>
      </set>
     </set>
    </set>
   </array>
  </eigenvalues>
  <separator name="orbital magnetization" >
   <v name="MAGDIPOLOUT">      0.00000000      0.00000000      0.00000000</v>
  </separator>
  <dos>
   <i name="efermi">     -2.75526804 </i>
   <total>
    <array>
     <dimension dim="1">gridpoints</dimension>
     <dimension dim="2">spin</dimension>
     <field>energy</field>
     <field>total</field>
     <field>integrated</field>
     <set>
      <set comment="spin 1">
       <r>   -23.5112     0.0000     0.0000 </r>
       <r>   -23.4191     0.0000     0.0000 </r>
       <r>   -23.3271     0.0000     0.0000 </r>
       <r>   -23.2350     0.0000     0.0000 </r>
       <r>   -23.1429     0.0000     0.0000 </r>
       <r>   -23.0509     0.0000     0.0000 </r>
       <r>   -22.9588     0.0000     0.0000 </r>
       <r>   -22.8668     0.0000     0.0000 </r>
       <r>   -22.7747     0.0000     0.0000 </r>
       <r>   -22.6827     0.0000     0.0000 </r>
       <r>   -22.5906     0.0000     0.0000 </r>
       <r>   -22.4986     0.0000     0.0000 </r>
       <r>   -22.4065     0.0000     0.0000 </r>
       <r>   -22.3145     0.0236     0.0022 </r>
       <r>   -22.2224     1.1016     0.1036 </r>
       <r>   -22.1303     2.3657     0.3214 </r>
       <r>   -22.0383     3.5649     0.6495 </r>
       <r>   -21.9462     1.5384     0.7912 </r>
       <r>   -21.8542     4.0166     1.1609 </r>
       <r>   -21.7621     2.8378     1.4221 </r>
       <r>   -21.6701     1.1190     1.5251 </r>
       <r>   -21.5780     3.8383     1.8785 </r>
       <r>   -21.4860     3.9208     2.2394 </r>
       <r>   -21.3939     1.6502     2.3913 </r>
       <r>   -21.3018     1.3300     2.5138 </r>
       <r>   -21.2098     4.2734     2.9071 </r>
       <r>   -21.1177     4.5903     3.3297 </r>
       <r>   -21.0257     1.5201     3.4696 </r>
       <r>   -20.9336     1.1184     3.5726 </r>
       <r>   -20.8416     2.3787     3.7916 </r>
       <r>   -20.7495     5.5250     4.3002 </r>
       <r>   -20.6575     2.1126     4.4946 </r>
       <r>   -20.5654     4.2981     4.8903 </r>
       <r>   -20.4734     0.5268     4.9388 </r>
       <r>   -20.3813     0.5241     4.9871 </r>
       <r>   -20.2892     5.1677     5.4628 </r>
       <r>   -20.1972     4.6660     5.8923 </r>
       <r>   -20.1051     2.9099     6.1602 </r>
       <r>   -20.0131     1.1347     6.2646 </r>
       <r>   -19.9210     4.0228     6.6349 </r>
       <r>   -19.8290     0.2017     6.6535 </r>
       <r>   -19.7369     1.3090     6.7740 </r>
       <r>   -19.6449     7.6670     7.4798 </r>
       <r>   -19.5528     2.5736     7.7167 </r>
       <r>   -19.4607     4.1486     8.0986 </r>
       <r>   -19.3687     0.2661     8.1231 </r>
       <r>   -19.2766     1.8241     8.2910 </r>
       <r>   -19.1846     3.4172     8.6056 </r>
       <r>   -19.0925     1.0254     8.7000 </r>
       <r>   -19.0005     4.7449     9.1368 </r>
       <r>   -18.9084     5.7794     9.6688 </r>
       <r>   -18.8164     2.0335     9.8560 </r>
       <r>   -18.7243     4.0991    10.2333 </r>
       <r>   -18.6323     1.0112    10.3264 </r>
       <r>   -18.5402     0.0435    10.3304 </r>
       <r>   -18.4481     3.0344    10.6098 </r>
       <r>   -18.3561     3.9648    10.9747 </r>
       <r>   -18.2640     5.6297    11.4930 </r>
       <r>   -18.1720     2.4834    11.7216 </r>
       <r>   -18.0799     4.2356    12.1115 </r>
       <r>   -17.9879     1.9643    12.2923 </r>
       <r>   -17.8958     3.7685    12.6392 </r>
       <r>   -17.8038     1.4766    12.7752 </r>
       <r>   -17.7117     0.0062    12.7757 </r>
       <r>   -17.6196     1.7188    12.9340 </r>
       <r>   -17.5276     8.7327    13.7379 </r>
       <r>   -17.4355     4.9900    14.1972 </r>
       <r>   -17.3435     1.3419    14.3207 </r>
       <r>   -17.2514     4.8942    14.7713 </r>
       <r>   -17.1594     2.3199    14.9848 </r>
       <r>   -17.0673     3.8505    15.3393 </r>
       <r>   -16.9753     3.0867    15.6234 </r>
       <r>   -16.8832     0.9869    15.7143 </r>
       <r>   -16.7912     1.5125    15.8535 </r>
       <r>   -16.6991     8.7624    16.6601 </r>
       <r>   -16.6070     5.4973    17.1662 </r>
       <r>   -16.5150     0.1899    17.1837 </r>
       <r>   -16.4229     0.0000    17.1837 </r>
       <r>   -16.3309     0.0000    17.1837 </r>
       <r>   -16.2388     0.0389    17.1873 </r>
       <r>   -16.1468     1.7278    17.3463 </r>
       <r>   -16.0547     1.1384    17.4511 </r>
       <r>   -15.9627     4.8006    17.8930 </r>
       <r>   -15.8706     2.8651    18.1568 </r>
       <r>   -15.7785     0.5453    18.2070 </r>
       <r>   -15.6865     3.2072    18.5022 </r>
       <r>   -15.5944     5.4065    18.9999 </r>
       <r>   -15.5024     1.5488    19.1425 </r>
       <r>   -15.4103     0.0476    19.1469 </r>
       <r>   -15.3183     1.6253    19.2965 </r>
       <r>   -15.2262    10.0017    20.2172 </r>
       <r>   -15.1342     3.3977    20.5300 </r>
       <r>   -15.0421     0.9637    20.6187 </r>
       <r>   -14.9501     4.9125    21.0709 </r>
       <r>   -14.8580     4.4618    21.4816 </r>
       <r>   -14.7659     1.2638    21.5980 </r>
       <r>   -14.6739     2.8243    21.8580 </r>
       <r>   -14.5818     8.5630    22.6462 </r>
       <r>   -14.4898     0.9606    22.7347 </r>
       <r>   -14.3977     0.0873    22.7427 </r>
       <r>   -14.3057     3.7318    23.0862 </r>
       <r>   -14.2136     4.1539    23.4686 </r>
       <r>   -14.1216     4.5452    23.8870 </r>
       <r>   -14.0295     0.8539    23.9656 </r>
       <r>   -13.9374     3.3880    24.2775 </r>
       <r>   -13.8454     1.8577    24.4485 </r>
       <r>   -13.7533     1.2332    24.5620 </r>
       <r>   -13.6613     4.0233    24.9324 </r>
       <r>   -13.5692     2.2958    25.1437 </r>
       <r>   -13.4772     4.3461    25.5438 </r>
       <r>   -13.3851     1.4176    25.6743 </r>
       <r>   -13.2931     2.4058    25.8958 </r>
       <r>   -13.2010     3.7285    26.2390 </r>
       <r>   -13.1090     0.0642    26.2449 </r>
       <r>   -13.0169     0.7340    26.3125 </r>
       <r>   -12.9248     9.5208    27.1889 </r>
       <r>   -12.8328     4.9960    27.6488 </r>
       <r>   -12.7407     3.3103    27.9536 </r>
       <r>   -12.6487     0.3450    27.9853 </r>
       <r>   -12.5566     2.1450    28.1828 </r>
       <r>   -12.4646     0.2459    28.2054 </r>
       <r>   -12.3725     1.5636    28.3494 </r>
       <r>   -12.2805     7.9384    29.0801 </r>
       <r>   -12.1884     8.7150    29.8824 </r>
       <r>   -12.0963     3.0158    30.1600 </r>
       <r>   -12.0043     0.0430    30.1640 </r>
       <r>   -11.9122     1.8601    30.3352 </r>
       <r>   -11.8202     3.4263    30.6506 </r>
       <r>   -11.7281     3.6338    30.9851 </r>
       <r>   -11.6361     6.5215    31.5854 </r>
       <r>   -11.5440     0.5126    31.6326 </r>
       <r>   -11.4520     0.2162    31.6525 </r>
       <r>   -11.3599     6.4487    32.2462 </r>
       <r>   -11.2679     6.0543    32.8035 </r>
       <r>   -11.1758     3.3998    33.1165 </r>
       <r>   -11.0837     5.5690    33.6291 </r>
       <r>   -10.9917     4.6786    34.0598 </r>
       <r>   -10.8996     2.8640    34.3234 </r>
       <r>   -10.8076     0.0335    34.3265 </r>
       <r>   -10.7155     0.0022    34.3267 </r>
       <r>   -10.6235     1.3962    34.4553 </r>
       <r>   -10.5314    11.0281    35.4705 </r>
       <r>   -10.4394    10.8035    36.4650 </r>
       <r>   -10.3473     2.7390    36.7171 </r>
       <r>   -10.2552     5.9769    37.2673 </r>
       <r>   -10.1632     2.0350    37.4546 </r>
       <r>   -10.0711     4.2282    37.8439 </r>
       <r>    -9.9791     4.9979    38.3040 </r>
       <r>    -9.8870    10.7993    39.2981 </r>
       <r>    -9.7950    10.0565    40.2238 </r>
       <r>    -9.7029     6.1779    40.7925 </r>
       <r>    -9.6109     8.8550    41.6077 </r>
       <r>    -9.5188     8.7653    42.4146 </r>
       <r>    -9.4268     5.5968    42.9298 </r>
       <r>    -9.3347     3.6931    43.2698 </r>
       <r>    -9.2426    10.4672    44.2333 </r>
       <r>    -9.1506    11.8231    45.3217 </r>
       <r>    -9.0585    15.0517    46.7073 </r>
       <r>    -8.9665     6.7816    47.3316 </r>
       <r>    -8.8744     2.8437    47.5933 </r>
       <r>    -8.7824    12.6945    48.7619 </r>
       <r>    -8.6903     6.7997    49.3879 </r>
       <r>    -8.5983     7.3753    50.0668 </r>
       <r>    -8.5062     7.1411    50.7242 </r>
       <r>    -8.4141     8.0177    51.4622 </r>
       <r>    -8.3221     3.3603    51.7716 </r>
       <r>    -8.2300     4.0582    52.1452 </r>
       <r>    -8.1380     5.4075    52.6429 </r>
       <r>    -8.0459    13.9730    53.9292 </r>
       <r>    -7.9539     5.1512    54.4034 </r>
       <r>    -7.8618     5.0317    54.8666 </r>
       <r>    -7.7698     1.1325    54.9709 </r>
       <r>    -7.6777     8.4583    55.7495 </r>
       <r>    -7.5857     6.9632    56.3905 </r>
       <r>    -7.4936     5.2222    56.8712 </r>
       <r>    -7.4015     2.8362    57.1323 </r>
       <r>    -7.3095     7.4326    57.8165 </r>
       <r>    -7.2174     2.1827    58.0174 </r>
       <r>    -7.1254    10.0820    58.9455 </r>
       <r>    -7.0333     7.9495    59.6773 </r>
       <r>    -6.9413     3.3262    59.9835 </r>
       <r>    -6.8492     3.6265    60.3174 </r>
       <r>    -6.7572     0.1354    60.3298 </r>
       <r>    -6.6651     4.2414    60.7203 </r>
       <r>    -6.5730    10.5335    61.6899 </r>
       <r>    -6.4810     8.9505    62.5139 </r>
       <r>    -6.3889     4.0580    62.8874 </r>
       <r>    -6.2969     4.0746    63.2625 </r>
       <r>    -6.2048     1.7839    63.4267 </r>
       <r>    -6.1128     4.9461    63.8820 </r>
       <r>    -6.0207     4.7633    64.3205 </r>
       <r>    -5.9287     2.8900    64.5866 </r>
       <r>    -5.8366     7.9349    65.3170 </r>
       <r>    -5.7446     7.1397    65.9743 </r>
       <r>    -5.6525     3.4799    66.2946 </r>
       <r>    -5.5604     3.7565    66.6404 </r>
       <r>    -5.4684     1.5146    66.7798 </r>
       <r>    -5.3763     3.1576    67.0705 </r>
       <r>    -5.2843     2.1245    67.2661 </r>
       <r>    -5.1922     1.4980    67.4040 </r>
       <r>    -5.1002     3.1767    67.6964 </r>
       <r>    -5.0081    15.6418    69.1363 </r>
       <r>    -4.9161     6.2296    69.7098 </r>
       <r>    -4.8240     0.0489    69.7143 </r>
       <r>    -4.7319     0.1273    69.7260 </r>
       <r>    -4.6399     2.0696    69.9165 </r>
       <r>    -4.5478     0.4659    69.9594 </r>
       <r>    -4.4558     1.3724    70.0858 </r>
       <r>    -4.3637     3.9933    70.4534 </r>
       <r>    -4.2717     5.0281    70.9162 </r>
       <r>    -4.1796     2.8676    71.1802 </r>
       <r>    -4.0876     0.0378    71.1837 </r>
       <r>    -3.9955     0.0087    71.1845 </r>
       <r>    -3.9035     1.1997    71.2949 </r>
       <r>    -3.8114     1.4349    71.4270 </r>
       <r>    -3.7193     0.0171    71.4286 </r>
       <r>    -3.6273     0.0118    71.4297 </r>
       <r>    -3.5352     2.1377    71.6264 </r>
       <r>    -3.4432     3.1227    71.9139 </r>
       <r>    -3.3511     0.0485    71.9184 </r>
       <r>    -3.2591     0.0000    71.9184 </r>
       <r>    -3.1670     0.0000    71.9184 </r>
       <r>    -3.0750     0.0000    71.9184 </r>
       <r>    -2.9829     0.0000    71.9184 </r>
       <r>    -2.8908     0.0001    71.9184 </r>
       <r>    -2.7988     0.1935    71.9362 </r>
       <r>    -2.7067     1.4293    72.0678 </r>
       <r>    -2.6147     0.1506    72.0816 </r>
       <r>    -2.5226     0.0001    72.0816 </r>
       <r>    -2.4306     0.0000    72.0816 </r>
       <r>    -2.3385     0.0000    72.0816 </r>
       <r>    -2.2465     0.0000    72.0816 </r>
       <r>    -2.1544     0.0001    72.0816 </r>
       <r>    -2.0624     0.2724    72.1067 </r>
       <r>    -1.9703     4.1655    72.4902 </r>
       <r>    -1.8782     0.8818    72.5713 </r>
       <r>    -1.7862     0.0437    72.5754 </r>
       <r>    -1.6941     1.7600    72.7374 </r>
       <r>    -1.6021     0.8547    72.8161 </r>
       <r>    -1.5100     0.0029    72.8163 </r>
       <r>    -1.4180     0.0019    72.8165 </r>
       <r>    -1.3259     1.7893    72.9812 </r>
       <r>    -1.2339    11.5075    74.0405 </r>
       <r>    -1.1418     2.8262    74.3007 </r>
       <r>    -1.0497     3.4441    74.6177 </r>
       <r>    -0.9577     5.9101    75.1618 </r>
       <r>    -0.8656     1.7305    75.3211 </r>
       <r>    -0.7736     4.3193    75.7187 </r>
       <r>    -0.6815     3.2883    76.0214 </r>
       <r>    -0.5895     4.7854    76.4619 </r>
       <r>    -0.4974     3.0336    76.7412 </r>
       <r>    -0.4054     3.7085    77.0826 </r>
       <r>    -0.3133     3.3663    77.3925 </r>
       <r>    -0.2213     5.2297    77.8739 </r>
       <r>    -0.1292     0.9239    77.9589 </r>
       <r>    -0.0371     0.0030    77.9592 </r>
       <r>     0.0549     0.4893    78.0042 </r>
       <r>     0.1470     4.2941    78.3995 </r>
       <r>     0.2390     1.4296    78.5311 </r>
       <r>     0.3311     4.2249    78.9201 </r>
       <r>     0.4231     3.6041    79.2518 </r>
       <r>     0.5152     3.0948    79.5367 </r>
       <r>     0.6072     3.6549    79.8732 </r>
       <r>     0.6993     1.3344    79.9960 </r>
       <r>     0.7914     5.7692    80.5271 </r>
       <r>     0.8834     5.9827    81.0778 </r>
       <r>     0.9755     1.5011    81.2160 </r>
       <r>     1.0675     4.2586    81.6081 </r>
       <r>     1.1596     1.8078    81.7745 </r>
       <r>     1.2516     5.6961    82.2988 </r>
       <r>     1.3437     2.0857    82.4908 </r>
       <r>     1.4357     6.7377    83.1111 </r>
       <r>     1.5278    14.2317    84.4212 </r>
       <r>     1.6198     4.4730    84.8329 </r>
       <r>     1.7119     4.6298    85.2591 </r>
       <r>     1.8040     3.3491    85.5674 </r>
       <r>     1.8960     8.7343    86.3715 </r>
       <r>     1.9881     8.8722    87.1882 </r>
       <r>     2.0801     9.3102    88.0452 </r>
       <r>     2.1722     6.7886    88.6702 </r>
       <r>     2.2642     6.9956    89.3142 </r>
       <r>     2.3563     7.4356    89.9986 </r>
       <r>     2.4483     5.6124    90.5153 </r>
       <r>     2.5404     2.7585    90.7692 </r>
       <r>     2.6325     3.5914    91.0998 </r>
       <r>     2.7245     2.3723    91.3182 </r>
       <r>     2.8166     4.7062    91.7514 </r>
       <r>     2.9086     2.5701    91.9880 </r>
       <r>     3.0007     0.1300    92.0000 </r>
       <r>     3.0927     0.0000    92.0000 </r>
       <r>     3.1848     0.0000    92.0000 </r>
       <r>     3.2768     0.0000    92.0000 </r>
       <r>     3.3689     0.0000    92.0000 </r>
       <r>     3.4609     0.0000    92.0000 </r>
       <r>     3.5530     0.0000    92.0000 </r>
       <r>     3.6451     0.0000    92.0000 </r>
       <r>     3.7371     0.0000    92.0000 </r>
       <r>     3.8292     0.0000    92.0000 </r>
       <r>     3.9212     0.0000    92.0000 </r>
       <r>     4.0133     0.0000    92.0000 </r>
       <r>     4.1053     0.0000    92.0000 </r>
      </set>
     </set>
    </array>
   </total>
  </dos>
 </calculation>
 <structure name="finalpos" >
  <crystal>
   <varray name="basis" >
    <v>       7.40170591       0.00000000       0.00000000 </v>
    <v>      -3.70085295       6.41006527       0.00000000 </v>
    <v>       0.00000000       0.00000000      20.00000000 </v>
   </varray>
   <i name="volume">    948.90835877 </i>
   <varray name="rec_basis" >
    <v>       0.13510399       0.07800233       0.00000000 </v>
    <v>       0.00000000       0.15600465       0.00000000 </v>
    <v>       0.00000000       0.00000000       0.05000000 </v>
   </varray>
  </crystal>
  <varray name="positions" >
   <v>       0.00000000       0.00000000       0.50000000 </v>
   <v>       0.33333333       0.00000000       0.50000000 </v>
   <v>       0.66666667       0.00000000       0.50000000 </v>
   <v>       0.00000000       0.33333333       0.50000000 </v>
   <v>       0.33333333       0.33333333       0.50000000 </v>
   <v>       0.66666667       0.33333333       0.50000000 </v>
   <v>       0.00000000       0.66666667       0.50000000 </v>
   <v>       0.33333333       0.66666667       0.50000000 </v>
   <v>       0.66666667       0.66666667       0.50000000 </v>
   <v>       0.22222222       0.11111111       0.50000000 </v>
   <v>       0.55555556       0.11111111       0.50000000 </v>
   <v>       0.88888889       0.11111111       0.50000000 </v>
   <v>       0.22222222       0.44444444       0.50000000 </v>
   <v>       0.55555556       0.44444444       0.50000000 </v>
   <v>       0.88888889       0.44444444       0.50000000 </v>
   <v>       0.22222222       0.77777778       0.50000000 </v>
   <v>       0.55555556       0.77777778       0.50000000 </v>
   <v>       0.88888889       0.77777778       0.50000000 </v>
  </varray>
 </structure>
</modeling>
