<?xml version="1.0" encoding="ISO-8859-1"?>
<modeling>
 <generator>
  <i name="program" type="string">vasp </i>
  <i name="version" type="string">6.4.1  </i>
  <i name="subversion" type="string">05Apr23 (build Feb 12 2025 00:37:39) complex                          parallel </i>
  <i name="platform" type="string">LinuxIFC </i>
  <i name="date" type="string">2025 02 14 </i>
  <i name="time" type="string">05:19:49 </i>
 </generator>
 <incar>
  <i type="string" name="SYSTEM">SCF</i>
  <i type="int" name="ISTART">     0</i>
  <i type="int" name="ICHARG">     2</i>
  <i type="int" name="NELM">    60</i>
  <i type="int" name="NELMIN">     6</i>
  <i name="EDIFF">      0.00000100</i>
  <i name="EDIFFG">     -0.00000100</i>
  <i name="ENCUT">    600.00000000</i>
  <i type="string" name="LREAL">Auto</i>
  <i type="int" name="ISMEAR">     0</i>
  <i name="SIGMA">      0.05000000</i>
  <i type="logical" name="LWAVE"> F  </i>
  <i type="logical" name="LCHARG"> F  </i>
 </incar>
 <primitive_cell>
  <structure name="primitive_cell" >
   <crystal>
    <varray name="basis" >
     <v>       7.40170591       0.00000000       0.00000000 </v>
     <v>      -3.70085295       6.41006527       0.00000000 </v>
     <v>       0.00000000       0.00000000      20.00000000 </v>
    </varray>
    <i name="volume">    948.90835877 </i>
    <varray name="rec_basis" >
     <v>       0.13510399       0.07800233       0.00000000 </v>
     <v>       0.00000000       0.15600465       0.00000000 </v>
     <v>       0.00000000       0.00000000       0.05000000 </v>
    </varray>
   </crystal>
   <varray name="positions" >
    <v>       0.00000000       0.00000000       0.50050000 </v>
    <v>       0.33333333       0.00000000       0.50000000 </v>
    <v>       0.66666667       0.00000000       0.50000000 </v>
    <v>       1.00000000       0.33333333       0.50000000 </v>
    <v>       0.33333333       0.33333333       0.50000000 </v>
    <v>       0.66666667       0.33333333       0.50000000 </v>
    <v>       1.00000000       0.66666667       0.50000000 </v>
    <v>       0.33333333       0.66666667       0.50000000 </v>
    <v>       0.66666667       0.66666667       0.50000000 </v>
    <v>       0.22222222       0.11111111       0.50050000 </v>
    <v>       0.55555556       0.11111111       0.50000000 </v>
    <v>       0.88888889       0.11111111       0.50000000 </v>
    <v>       0.22222222       0.44444444       0.50000000 </v>
    <v>       0.55555556       0.44444444       0.50000000 </v>
    <v>       0.88888889       0.44444444       0.50000000 </v>
    <v>       0.22222222       0.77777778       0.50000000 </v>
    <v>       0.55555556       0.77777778       0.50000000 </v>
    <v>       0.88888889       0.77777778       0.50000000 </v>
   </varray>
  </structure>
  <varray name="primitive_index" >
   <v type="int" >        1 </v>
   <v type="int" >        2 </v>
   <v type="int" >        3 </v>
   <v type="int" >        4 </v>
   <v type="int" >        5 </v>
   <v type="int" >        6 </v>
   <v type="int" >        7 </v>
   <v type="int" >        8 </v>
   <v type="int" >        9 </v>
   <v type="int" >       10 </v>
   <v type="int" >       11 </v>
   <v type="int" >       12 </v>
   <v type="int" >       13 </v>
   <v type="int" >       14 </v>
   <v type="int" >       15 </v>
   <v type="int" >       16 </v>
   <v type="int" >       17 </v>
   <v type="int" >       18 </v>
  </varray>
 </primitive_cell>
 <kpoints>
  <generation param="Gamma">
   <v type="int" name="divisions">       7        7        1 </v>
   <v name="usershift">      0.00000000       0.00000000       0.00000000 </v>
   <v name="genvec1">      0.14285714       0.00000000       0.00000000 </v>
   <v name="genvec2">      0.00000000       0.14285714       0.00000000 </v>
   <v name="genvec3">      0.00000000       0.00000000       1.00000000 </v>
   <v name="shift">      0.00000000       0.00000000       0.00000000 </v>
  </generation>
  <varray name="kpointlist" >
   <v>       0.00000000       0.00000000       0.00000000 </v>
   <v>       0.14285714       0.00000000       0.00000000 </v>
   <v>       0.00000000       0.14285714       0.00000000 </v>
   <v>       0.28571429       0.00000000       0.00000000 </v>
   <v>       0.00000000       0.28571429       0.00000000 </v>
   <v>       0.42857143       0.00000000       0.00000000 </v>
   <v>       0.00000000       0.42857143       0.00000000 </v>
   <v>       0.14285714       0.14285714       0.00000000 </v>
   <v>      -0.14285714       0.28571429       0.00000000 </v>
   <v>       0.28571429       0.14285714       0.00000000 </v>
   <v>      -0.14285714       0.42857143       0.00000000 </v>
   <v>      -0.42857143       0.28571429       0.00000000 </v>
   <v>       0.42857143       0.14285714       0.00000000 </v>
   <v>      -0.14285714      -0.42857143       0.00000000 </v>
   <v>       0.28571429       0.28571429       0.00000000 </v>
   <v>      -0.28571429      -0.42857143       0.00000000 </v>
  </varray>
  <varray name="weights" >
   <v>       0.02040816 </v>
   <v>       0.04081633 </v>
   <v>       0.08163265 </v>
   <v>       0.04081633 </v>
   <v>       0.08163265 </v>
   <v>       0.04081633 </v>
   <v>       0.08163265 </v>
   <v>       0.08163265 </v>
   <v>       0.04081633 </v>
   <v>       0.08163265 </v>
   <v>       0.08163265 </v>
   <v>       0.08163265 </v>
   <v>       0.04081633 </v>
   <v>       0.08163265 </v>
   <v>       0.08163265 </v>
   <v>       0.04081633 </v>
  </varray>
 </kpoints>
 <parameters>
  <separator name="general" >
   <i type="string" name="SYSTEM">SCF</i>
   <i type="logical" name="LCOMPAT"> F  </i>
  </separator>
  <separator name="electronic" >
   <i type="string" name="PREC">normal</i>
   <i name="ENMAX">    600.00000000</i>
   <i name="ENAUG">    644.87300000</i>
   <i name="EDIFF">      0.00000100</i>
   <i type="int" name="IALGO">    38</i>
   <i type="int" name="IWAVPR">    10</i>
   <i type="int" name="NBANDS">    46</i>
   <i type="int" name="NBANDSLOW">    -1</i>
   <i type="int" name="NBANDSHIGH">    -1</i>
   <i name="NELECT">     72.00000000</i>
   <i type="int" name="TURBO">     0</i>
   <i type="int" name="IRESTART">     0</i>
   <i type="int" name="NREBOOT">     0</i>
   <i type="int" name="NMIN">     0</i>
   <i name="EREF">      0.00000000</i>
   <separator name="electronic smearing" >
    <i type="int" name="ISMEAR">     0</i>
    <i name="SIGMA">      0.05000000</i>
    <i name="KSPACING">      0.50000000</i>
    <i type="logical" name="KGAMMA"> T  </i>
    <i type="logical" name="KBLOWUP"> T  </i>
   </separator>
   <separator name="electronic projectors" >
    <i type="logical" name="LREAL"> T  </i>
    <v name="ROPT">     -0.00050000</v>
    <i type="int" name="LMAXPAW">  -100</i>
    <i type="int" name="LMAXMIX">     2</i>
    <i type="logical" name="NLSPLINE"> F  </i>
   </separator>
   <separator name="electronic startup" >
    <i type="int" name="ISTART">     0</i>
    <i type="int" name="ICHARG">     2</i>
    <i type="int" name="INIWAV">     1</i>
   </separator>
   <separator name="electronic spin" >
    <i type="int" name="ISPIN">     1</i>
    <i type="logical" name="LNONCOLLINEAR"> F  </i>
    <v name="MAGMOM">      1.00000000      1.00000000      1.00000000      1.00000000      1.00000000      1.00000000      1.00000000      1.00000000      1.00000000      1.00000000      1.00000000      1.00000000      1.00000000      1.00000000      1.00000000      1.00000000      1.00000000      1.00000000</v>
    <i name="NUPDOWN">     -1.00000000</i>
    <i type="logical" name="LSORBIT"> F  </i>
    <v name="SAXIS">      0.00000000      0.00000000      1.00000000</v>
    <i type="logical" name="LSPIRAL"> F  </i>
    <v name="QSPIRAL">      0.00000000      0.00000000      0.00000000</v>
    <i type="logical" name="LZEROZ"> F  </i>
   </separator>
   <separator name="electronic exchange-correlation" >
    <i type="logical" name="LASPH"> F  </i>
    <i type="logical" name="LMETAGGA"> F  </i>
   </separator>
   <separator name="electronic convergence" >
    <i type="int" name="NELM">    60</i>
    <i type="int" name="NELMDL">    -5</i>
    <i type="int" name="NELMIN">     6</i>
    <i name="ENINI">    600.00000000</i>
    <separator name="electronic convergence detail" >
     <i type="logical" name="LDIAG"> T  </i>
     <i type="logical" name="LSUBROT"> F  </i>
     <i name="WEIMIN">      0.00000000</i>
     <i name="EBREAK">      0.00000000</i>
     <i name="DEPER">      0.30000000</i>
     <i type="int" name="NRMM">     4</i>
     <i name="TIME">      0.40000000</i>
    </separator>
   </separator>
   <separator name="electronic mixer" >
    <i name="AMIX">      0.40000000</i>
    <i name="BMIX">      1.00000000</i>
    <i name="AMIN">      0.10000000</i>
    <i name="AMIX_MAG">      1.60000000</i>
    <i name="BMIX_MAG">      1.00000000</i>
    <separator name="electronic mixer details" >
     <i type="int" name="IMIX">     4</i>
     <i type="logical" name="MIXFIRST"> F  </i>
     <i type="int" name="MAXMIX">   -45</i>
     <i name="WC">    100.00000000</i>
     <i type="int" name="INIMIX">     1</i>
     <i type="int" name="MIXPRE">     1</i>
     <i type="int" name="MREMOVE">     5</i>
    </separator>
   </separator>
   <separator name="electronic dipolcorrection" >
    <i type="logical" name="LDIPOL"> F  </i>
    <i type="logical" name="LMONO"> F  </i>
    <i type="int" name="IDIPOL">     0</i>
    <i name="EPSILON">      1.00000000</i>
    <v name="DIPOL">   -100.00000000   -100.00000000   -100.00000000</v>
    <i name="EFIELD">      0.00000000</i>
   </separator>
  </separator>
  <separator name="grids" >
   <i type="int" name="NGX">    48</i>
   <i type="int" name="NGY">    48</i>
   <i type="int" name="NGZ">   120</i>
   <i type="int" name="NGXF">    96</i>
   <i type="int" name="NGYF">    96</i>
   <i type="int" name="NGZF">   240</i>
   <i type="logical" name="ADDGRID"> F  </i>
  </separator>
  <separator name="ionic" >
   <i type="int" name="NSW">     0</i>
   <i type="int" name="IBRION">    -1</i>
   <i type="int" name="MDALGO">     0</i>
   <i type="int" name="ISIF">     2</i>
   <i name="PSTRESS">      0.00000000</i>
   <i name="EDIFFG">     -0.00000100</i>
   <i type="int" name="NFREE">     0</i>
   <i name="POTIM">      0.50000000</i>
   <i name="SMASS">     -3.00000000</i>
   <i name="SCALEE">      1.00000000</i>
  </separator>
  <separator name="ionic md" >
   <i name="TEBEG">      0.00010000</i>
   <i name="TEEND">      0.00010000</i>
   <i type="int" name="NBLOCK">     1</i>
   <i type="int" name="KBLOCK">     1</i>
   <i type="int" name="NPACO">   256</i>
   <i name="APACO">     10.00000000</i>
  </separator>
  <separator name="symmetry" >
   <i type="int" name="ISYM">     2</i>
   <i name="SYMPREC">      0.00001000</i>
  </separator>
  <separator name="dos" >
   <i type="int" name="LORBIT">     0</i>
   <v name="RWIGS">     -1.00000000</v>
   <i type="int" name="NEDOS">   301</i>
   <i name="EMIN">     10.00000000</i>
   <i name="EMAX">    -10.00000000</i>
   <i name="EFERMI">      0.00000000</i>
  </separator>
  <separator name="writing" >
   <i type="int" name="NWRITE">     2</i>
   <i type="logical" name="LWAVE"> F  </i>
   <i type="logical" name="LDOWNSAMPLE"> F  </i>
   <i type="logical" name="LCHARG"> F  </i>
   <i type="logical" name="LPARD"> F  </i>
   <i type="logical" name="LVTOT"> F  </i>
   <i type="logical" name="LVHAR"> F  </i>
   <i type="logical" name="LELF"> F  </i>
   <i type="logical" name="LOPTICS"> F  </i>
   <v name="STM">      0.00000000      0.00000000      0.00000000      0.00000000      0.00000000      0.00000000      0.00000000</v>
  </separator>
  <separator name="performance" >
   <i type="int" name="NPAR">     2</i>
   <i type="int" name="NSIM">     4</i>
   <i type="int" name="NBLK">    -1</i>
   <i type="logical" name="LPLANE"> T  </i>
   <i type="logical" name="LSCALAPACK"> T  </i>
   <i type="logical" name="LSCAAWARE"> F  </i>
   <i type="logical" name="LSCALU"> F  </i>
   <i type="logical" name="LASYNC"> F  </i>
   <i type="logical" name="LORBITALREAL"> F  </i>
  </separator>
  <separator name="miscellaneous" >
   <i type="int" name="IDIOT">     3</i>
   <i type="int" name="PHON_NSTRUCT">    -1</i>
   <i type="logical" name="LMUSIC"> F  </i>
   <v name="POMASS">     12.01100000</v>
   <v name="DARWINR">      0.00000000</v>
   <v name="DARWINV">      1.00000000</v>
   <i type="logical" name="LCORR"> T  </i>
  </separator>
  <i type="logical" name="GGA_COMPAT"> T  </i>
  <i type="logical" name="LBERRY"> F  </i>
  <i type="int" name="ICORELEVEL">     0</i>
  <i type="logical" name="LDAU"> F  </i>
  <i type="int" name="I_CONSTRAINED_M">     0</i>
  <separator name="electronic exchange-correlation" >
   <i type="string" name="GGA">--</i>
   <i type="int" name="VOSKOWN">     0</i>
   <i type="logical" name="LHFCALC"> F  </i>
   <i type="string" name="PRECFOCK"></i>
   <i type="logical" name="LSYMGRAD"> F  </i>
   <i type="logical" name="LHFONE"> F  </i>
   <i type="logical" name="LRHFCALC"> F  </i>
   <i type="logical" name="LTHOMAS"> F  </i>
   <i type="logical" name="LMODELHF"> F  </i>
   <i type="logical" name="LFOCKACE"> F  </i>
   <i name="ENCUT4O">     -1.00000000</i>
   <i type="int" name="EXXOEP">     0</i>
   <i type="int" name="FOURORBIT">     0</i>
   <i name="AEXX">      0.00000000</i>
   <i name="HFALPHA">      0.00000000</i>
   <i name="MCALPHA">      0.00000000</i>
   <i name="ALDAX">      1.00000000</i>
   <i name="AGGAX">      1.00000000</i>
   <i name="ALDAC">      1.00000000</i>
   <i name="AGGAC">      1.00000000</i>
   <i type="int" name="NKREDX">     1</i>
   <i type="int" name="NKREDY">     1</i>
   <i type="int" name="NKREDZ">     1</i>
   <i type="logical" name="SHIFTRED"> F  </i>
   <i type="logical" name="ODDONLY"> F  </i>
   <i type="logical" name="EVENONLY"> F  </i>
   <i type="int" name="LMAXFOCK">     0</i>
   <i type="int" name="NMAXFOCKAE">     0</i>
   <i type="logical" name="LFOCKAEDFT"> F  </i>
   <i name="HFSCREEN">      0.00000000</i>
   <i name="HFSCREENC">      0.00000000</i>
   <i type="int" name="NBANDSGWLOW">     0</i>
  </separator>
  <separator name="vdW DFT" >
   <i type="logical" name="LUSE_VDW"> F  </i>
   <i type="int" name="IVDW_NL">     1</i>
   <i type="logical" name="LSPIN_VDW"> F  </i>
   <i name="Zab_VDW">     -0.84910000</i>
   <i name="PARAM1">      0.12340000</i>
   <i name="PARAM2">      1.00000000</i>
   <i name="PARAM3">      0.00000000</i>
  </separator>
  <separator name="model GW" >
   <i type="int" name="MODEL_GW">     0</i>
   <i name="MODEL_EPS0">     31.63027863</i>
   <i name="MODEL_ALPHA">      1.00000000</i>
  </separator>
  <separator name="linear response parameters" >
   <i type="logical" name="LEPSILON"> F  </i>
   <i type="logical" name="LRPA"> F  </i>
   <i type="logical" name="LNABLA"> F  </i>
   <i type="logical" name="LVEL"> F  </i>
   <i name="CSHIFT">      0.10000000</i>
   <i name="OMEGAMAX">     -1.00000000</i>
   <i name="DEG_THRESHOLD">      0.00200000</i>
   <i name="RTIME">     -0.10000000</i>
   <i name="WPLASMAI">      0.00000000</i>
   <v name="DFIELD">      0.00000000      0.00000000      0.00000000</v>
   <v name="WPLASMA">      0.00000000      0.00000000      0.00000000      0.00000000      0.00000000      0.00000000      0.00000000      0.00000000      0.00000000</v>
  </separator>
  <separator name="orbital magnetization" >
   <i type="logical" name="NUCIND"> F  </i>
   <v name="MAGPOS">      0.00000000      0.00000000      0.00000000</v>
   <i type="logical" name="LNICSALL"> T  </i>
   <i type="logical" name="ORBITALMAG"> F  </i>
   <i type="logical" name="LMAGBLOCH"> F  </i>
   <i type="logical" name="LCHIMAG"> F  </i>
   <i type="logical" name="LGAUGE"> T  </i>
   <i type="int" name="MAGATOM">     0</i>
   <v name="MAGDIPOL">      0.00000000      0.00000000      0.00000000</v>
   <v name="AVECCONST">      0.00000000      0.00000000      0.00000000</v>
  </separator>
  <separator name="response functions" >
   <i type="logical" name="LALL_IN_ONE"> F  </i>
   <i type="int" name="IALL_IN_ONE">    -1</i>
   <i type="int" name="NBANDS_WAVE">    -1</i>
   <i type="logical" name="LFINITE_TEMPERATURE"> F  </i>
   <i type="logical" name="LADDER"> F  </i>
   <i type="logical" name="LRPAFORCE"> F  </i>
   <i type="logical" name="LFXC"> F  </i>
   <i type="logical" name="LHARTREE"> T  </i>
   <i type="int" name="IBSE">     0</i>
   <v type="int" name="KPOINT">    -1     0     0     0</v>
   <i type="logical" name="LTCTC"> F  </i>
   <i type="logical" name="LTCTE"> F  </i>
   <i type="logical" name="LTETE"> F  </i>
   <i type="logical" name="LTRIPLET"> F  </i>
   <i type="logical" name="LFXCEPS"> F  </i>
   <i type="logical" name="LFXHEG"> F  </i>
   <i type="int" name="NATURALO">     2</i>
   <i type="logical" name="LHOLEGF"> F  </i>
   <i type="logical" name="L2ORDER"> F  </i>
   <i type="logical" name="LDMP1"> F  </i>
   <i type="logical" name="LMP2LT"> F  </i>
   <i type="logical" name="LSMP2LT"> F  </i>
   <i type="logical" name="LGWLF"> F  </i>
   <i name="ENCUTGW">     -1.60000002</i>
   <i name="ENCUTGWSOFT">     -1.60000002</i>
   <i name="ENCUTLF">     -1.00000000</i>
   <i type="logical" name="LESF_SPLINES"> F  </i>
   <i type="int" name="LMAXMP2">    -1</i>
   <i name="SCISSOR">      0.00000000</i>
   <i type="int" name="NOMEGA">     0</i>
   <i type="int" name="NOMEGAR">     0</i>
   <i type="int" name="NBANDSGW">    -1</i>
   <i type="int" name="NBANDSO">    -1</i>
   <i type="int" name="NBANDSV">    -1</i>
   <i type="int" name="NELMGW">     1</i>
   <i type="int" name="NELMHF">     1</i>
   <i type="int" name="DIM">     3</i>
   <i type="int" name="IESPILON">     4</i>
   <i type="int" name="ANTIRES">     0</i>
   <i name="OMEGAMAX">    -30.00000000</i>
   <i name="OMEGAMIN">    -30.00000000</i>
   <i name="OMEGATL">   -200.00000000</i>
   <i type="int" name="OMEGAGRID">     0</i>
   <i name="CSHIFT">     -0.10000000</i>
   <i type="logical" name="LSELFENERGY"> F  </i>
   <i type="logical" name="LSPECTRAL"> F  </i>
   <i type="logical" name="LSPECTRALGW"> F  </i>
   <i type="logical" name="LSINGLES"> F  </i>
   <i type="logical" name="LFERMIGW"> F  </i>
   <i type="logical" name="ODDONLYGW"> F  </i>
   <i type="logical" name="EVENONLYGW"> F  </i>
   <i type="int" name="NKREDLFX">     1</i>
   <i type="int" name="NKREDLFY">     1</i>
   <i type="int" name="NKREDLFZ">     1</i>
   <i type="int" name="MAXMEM">  2800</i>
   <i type="int" name="TELESCOPE">     0</i>
   <i type="int" name="NTAUPAR">    -1</i>
   <i type="int" name="NOMEGAPAR">    -1</i>
   <i name="DAMP_NEWTON">      0.80000001</i>
   <i name="LAMBDA">      1.00000000</i>
  </separator>
  <separator name="External order field" >
   <i name="OFIELD_KAPPA">      0.00000000</i>
   <v name="OFIELD_K">      0.00000000      0.00000000      0.00000000</v>
   <i name="OFIELD_Q6_NEAR">      0.00000000</i>
   <i name="OFIELD_Q6_FAR">      0.00000000</i>
   <i name="OFIELD_A">      0.00000000</i>
  </separator>
  <separator name="optional k-points parameters" >
   <i type="int" name="KPOINTS_OPT_MODE">     1</i>
   <i type="logical" name="LKPOINTS_OPT"> F  </i>
  </separator>
 </parameters>
 <atominfo>
  <atoms>      18 </atoms>
  <types>       1 </types>
  <array name="atoms" >
   <dimension dim="1">ion</dimension>
   <field type="string">element</field>
   <field type="int">atomtype</field>
   <set>
    <rc><c>C </c><c>   1</c></rc>
    <rc><c>C </c><c>   1</c></rc>
    <rc><c>C </c><c>   1</c></rc>
    <rc><c>C </c><c>   1</c></rc>
    <rc><c>C </c><c>   1</c></rc>
    <rc><c>C </c><c>   1</c></rc>
    <rc><c>C </c><c>   1</c></rc>
    <rc><c>C </c><c>   1</c></rc>
    <rc><c>C </c><c>   1</c></rc>
    <rc><c>C </c><c>   1</c></rc>
    <rc><c>C </c><c>   1</c></rc>
    <rc><c>C </c><c>   1</c></rc>
    <rc><c>C </c><c>   1</c></rc>
    <rc><c>C </c><c>   1</c></rc>
    <rc><c>C </c><c>   1</c></rc>
    <rc><c>C </c><c>   1</c></rc>
    <rc><c>C </c><c>   1</c></rc>
    <rc><c>C </c><c>   1</c></rc>
   </set>
  </array>
  <array name="atomtypes" >
   <dimension dim="1">type</dimension>
   <field type="int">atomspertype</field>
   <field type="string">element</field>
   <field>mass</field>
   <field>valence</field>
   <field type="string">pseudopotential</field>
   <set>
    <rc><c>  18</c><c>C </c><c>     12.01100000</c><c>      4.00000000</c><c>  PAW_PBE C 08Apr2002                   </c></rc>
   </set>
  </array>
 </atominfo>
 <structure name="initialpos" >
  <crystal>
   <varray name="basis" >
    <v>       7.40170591       0.00000000       0.00000000 </v>
    <v>      -3.70085295       6.41006527       0.00000000 </v>
    <v>       0.00000000       0.00000000      20.00000000 </v>
   </varray>
   <i name="volume">    948.90835877 </i>
   <varray name="rec_basis" >
    <v>       0.13510399       0.07800233       0.00000000 </v>
    <v>       0.00000000       0.15600465       0.00000000 </v>
    <v>       0.00000000       0.00000000       0.05000000 </v>
   </varray>
  </crystal>
  <varray name="positions" >
   <v>       0.00000000       0.00000000       0.50050000 </v>
   <v>       0.33333333       0.00000000       0.50000000 </v>
   <v>       0.66666667       0.00000000       0.50000000 </v>
   <v>       0.00000000       0.33333333       0.50000000 </v>
   <v>       0.33333333       0.33333333       0.50000000 </v>
   <v>       0.66666667       0.33333333       0.50000000 </v>
   <v>       0.00000000       0.66666667       0.50000000 </v>
   <v>       0.33333333       0.66666667       0.50000000 </v>
   <v>       0.66666667       0.66666667       0.50000000 </v>
   <v>       0.22222222       0.11111111       0.50050000 </v>
   <v>       0.55555556       0.11111111       0.50000000 </v>
   <v>       0.88888889       0.11111111       0.50000000 </v>
   <v>       0.22222222       0.44444444       0.50000000 </v>
   <v>       0.55555556       0.44444444       0.50000000 </v>
   <v>       0.88888889       0.44444444       0.50000000 </v>
   <v>       0.22222222       0.77777778       0.50000000 </v>
   <v>       0.55555556       0.77777778       0.50000000 </v>
   <v>       0.88888889       0.77777778       0.50000000 </v>
  </varray>
 </structure>
 <calculation>
  <scstep>
   <time name="dav">    3.74    3.89</time>
   <time name="total">    3.83    3.98</time>
   <energy>
    <i name="alphaZ">     28.04858418 </i>
    <i name="ewald">  11638.81265578 </i>
    <i name="hartreedc"> -13553.13977636 </i>
    <i name="XCdc">    237.17703473 </i>
    <i name="pawpsdc">   1953.39683484 </i>
    <i name="pawaedc">  -1963.64613940 </i>
    <i name="eentropy">     -0.01342678 </i>
    <i name="bandstr">   -251.08132110 </i>
    <i name="atom">   2648.70517965 </i>
    <i name="e_fr_energy">    738.25962555 </i>
    <i name="e_wo_entrp">    738.27305233 </i>
    <i name="e_0_energy">    738.26633894 </i>
   </energy>
  </scstep>
  <scstep>
   <time name="dav">    5.13    5.32</time>
   <time name="total">    5.13    5.32</time>
   <energy>
    <i name="e_fr_energy">    -24.78554620 </i>
    <i name="e_wo_entrp">    -24.78523791 </i>
    <i name="e_0_energy">    -24.78539206 </i>
   </energy>
  </scstep>
  <scstep>
   <time name="dav">    4.14    4.30</time>
   <time name="total">    4.14    4.30</time>
   <energy>
    <i name="e_fr_energy">   -172.41889544 </i>
    <i name="e_wo_entrp">   -172.41759142 </i>
    <i name="e_0_energy">   -172.41824343 </i>
   </energy>
  </scstep>
  <scstep>
   <time name="dav">    4.12    3.07</time>
   <time name="total">    4.12    3.07</time>
   <energy>
    <i name="e_fr_energy">   -177.35586239 </i>
    <i name="e_wo_entrp">   -177.35356816 </i>
    <i name="e_0_energy">   -177.35471527 </i>
   </energy>
  </scstep>
  <scstep>
   <time name="dav">    4.63    4.81</time>
   <time name="total">    4.81    4.99</time>
   <energy>
    <i name="e_fr_energy">   -177.48756172 </i>
    <i name="e_wo_entrp">   -177.48525891 </i>
    <i name="e_0_energy">   -177.48641031 </i>
   </energy>
  </scstep>
  <scstep>
   <time name="dav">    3.87    4.02</time>
   <time name="total">    4.12    4.28</time>
   <energy>
    <i name="e_fr_energy">   -169.32071216 </i>
    <i name="e_wo_entrp">   -169.31840934 </i>
    <i name="e_0_energy">   -169.31956075 </i>
   </energy>
  </scstep>
  <scstep>
   <time name="dav">    3.79    3.94</time>
   <time name="total">    4.05    4.21</time>
   <energy>
    <i name="e_fr_energy">   -166.15350366 </i>
    <i name="e_wo_entrp">   -166.15120084 </i>
    <i name="e_0_energy">   -166.15235225 </i>
   </energy>
  </scstep>
  <scstep>
   <time name="dav">    3.95    4.10</time>
   <time name="total">    4.21    4.37</time>
   <energy>
    <i name="e_fr_energy">   -166.09047697 </i>
    <i name="e_wo_entrp">   -166.08817417 </i>
    <i name="e_0_energy">   -166.08932557 </i>
   </energy>
  </scstep>
  <scstep>
   <time name="dav">    4.17    4.33</time>
   <time name="total">    4.43    4.60</time>
   <energy>
    <i name="e_fr_energy">   -166.07777995 </i>
    <i name="e_wo_entrp">   -166.07547714 </i>
    <i name="e_0_energy">   -166.07662854 </i>
   </energy>
  </scstep>
  <scstep>
   <time name="dav">    3.78    3.93</time>
   <time name="total">    4.04    4.20</time>
   <energy>
    <i name="e_fr_energy">   -166.05890527 </i>
    <i name="e_wo_entrp">   -166.05660246 </i>
    <i name="e_0_energy">   -166.05775386 </i>
   </energy>
  </scstep>
  <scstep>
   <time name="dav">    3.85    2.80</time>
   <time name="total">    4.11    3.07</time>
   <energy>
    <i name="e_fr_energy">   -166.06365121 </i>
    <i name="e_wo_entrp">   -166.06134841 </i>
    <i name="e_0_energy">   -166.06249981 </i>
   </energy>
  </scstep>
  <scstep>
   <time name="dav">    3.57    3.70</time>
   <time name="total">    3.84    3.97</time>
   <energy>
    <i name="e_fr_energy">   -166.06805093 </i>
    <i name="e_wo_entrp">   -166.06574812 </i>
    <i name="e_0_energy">   -166.06689953 </i>
   </energy>
  </scstep>
  <scstep>
   <time name="dav">    3.76    3.89</time>
   <time name="total">    4.02    4.16</time>
   <energy>
    <i name="e_fr_energy">   -166.07315671 </i>
    <i name="e_wo_entrp">   -166.07085390 </i>
    <i name="e_0_energy">   -166.07200530 </i>
   </energy>
  </scstep>
  <scstep>
   <time name="dav">    3.67    3.82</time>
   <time name="total">    3.93    4.09</time>
   <energy>
    <i name="e_fr_energy">   -166.07606138 </i>
    <i name="e_wo_entrp">   -166.07375857 </i>
    <i name="e_0_energy">   -166.07490997 </i>
   </energy>
  </scstep>
  <scstep>
   <time name="dav">    4.07    4.25</time>
   <time name="total">    4.33    4.52</time>
   <energy>
    <i name="e_fr_energy">   -166.07680125 </i>
    <i name="e_wo_entrp">   -166.07449844 </i>
    <i name="e_0_energy">   -166.07564985 </i>
   </energy>
  </scstep>
  <scstep>
   <time name="dav">    3.64    3.79</time>
   <time name="total">    3.90    4.06</time>
   <energy>
    <i name="e_fr_energy">   -166.07696815 </i>
    <i name="e_wo_entrp">   -166.07466534 </i>
    <i name="e_0_energy">   -166.07581674 </i>
   </energy>
  </scstep>
  <scstep>
   <time name="dav">    3.37    3.51</time>
   <time name="total">    3.63    3.78</time>
   <energy>
    <i name="e_fr_energy">   -166.07701967 </i>
    <i name="e_wo_entrp">   -166.07471686 </i>
    <i name="e_0_energy">   -166.07586827 </i>
   </energy>
  </scstep>
  <scstep>
   <time name="dav">    3.20    3.31</time>
   <time name="total">    3.45    3.58</time>
   <energy>
    <i name="e_fr_energy">   -166.07706163 </i>
    <i name="e_wo_entrp">   -166.07475882 </i>
    <i name="e_0_energy">   -166.07591022 </i>
   </energy>
  </scstep>
  <scstep>
   <time name="dav">    2.93    1.82</time>
   <time name="total">    3.19    2.08</time>
   <energy>
    <i name="e_fr_energy">   -166.07708390 </i>
    <i name="e_wo_entrp">   -166.07478108 </i>
    <i name="e_0_energy">   -166.07593249 </i>
   </energy>
  </scstep>
  <scstep>
   <time name="dav">    3.14    3.25</time>
   <time name="total">    3.40    3.52</time>
   <energy>
    <i name="e_fr_energy">   -166.07710140 </i>
    <i name="e_wo_entrp">   -166.07479859 </i>
    <i name="e_0_energy">   -166.07595000 </i>
   </energy>
  </scstep>
  <scstep>
   <time name="dav">    2.61    2.71</time>
   <time name="total">    2.87    2.98</time>
   <energy>
    <i name="e_fr_energy">   -166.07710415 </i>
    <i name="e_wo_entrp">   -166.07480134 </i>
    <i name="e_0_energy">   -166.07595275 </i>
   </energy>
  </scstep>
  <scstep>
   <time name="dav">    2.63    2.73</time>
   <time name="total">    2.71    2.82</time>
   <energy>
    <i name="alphaZ">     28.04858418 </i>
    <i name="ewald">  11638.81265578 </i>
    <i name="hartreedc"> -13861.46869785 </i>
    <i name="XCdc">    247.81328651 </i>
    <i name="pawpsdc">   7452.64324788 </i>
    <i name="pawaedc">  -7464.90649921 </i>
    <i name="eentropy">     -0.00230281 </i>
    <i name="bandstr">   -855.72255897 </i>
    <i name="atom">   2648.70517965 </i>
    <i name="e_fr_energy">   -166.07710483 </i>
    <i name="e_wo_entrp">   -166.07480202 </i>
    <i name="e_0_energy">   -166.07595343 </i>
   </energy>
  </scstep>
  <structure>
   <crystal>
    <varray name="basis" >
     <v>       7.40170591       0.00000000       0.00000000 </v>
     <v>      -3.70085295       6.41006527       0.00000000 </v>
     <v>       0.00000000       0.00000000      20.00000000 </v>
    </varray>
    <i name="volume">    948.90835877 </i>
    <varray name="rec_basis" >
     <v>       0.13510399       0.07800233       0.00000000 </v>
     <v>       0.00000000       0.15600465       0.00000000 </v>
     <v>       0.00000000       0.00000000       0.05000000 </v>
    </varray>
   </crystal>
   <varray name="positions" >
    <v>       0.00000000       0.00000000       0.50050000 </v>
    <v>       0.33333333       0.00000000       0.50000000 </v>
    <v>       0.66666667       0.00000000       0.50000000 </v>
    <v>       0.00000000       0.33333333       0.50000000 </v>
    <v>       0.33333333       0.33333333       0.50000000 </v>
    <v>       0.66666667       0.33333333       0.50000000 </v>
    <v>       0.00000000       0.66666667       0.50000000 </v>
    <v>       0.33333333       0.66666667       0.50000000 </v>
    <v>       0.66666667       0.66666667       0.50000000 </v>
    <v>       0.22222222       0.11111111       0.50050000 </v>
    <v>       0.55555556       0.11111111       0.50000000 </v>
    <v>       0.88888889       0.11111111       0.50000000 </v>
    <v>       0.22222222       0.44444444       0.50000000 </v>
    <v>       0.55555556       0.44444444       0.50000000 </v>
    <v>       0.88888889       0.44444444       0.50000000 </v>
    <v>       0.22222222       0.77777778       0.50000000 </v>
    <v>       0.55555556       0.77777778       0.50000000 </v>
    <v>       0.88888889       0.77777778       0.50000000 </v>
   </varray>
  </structure>
  <varray name="forces" >
   <v>      -0.00062495      -0.00036081      -0.08098842 </v>
   <v>      -0.00065071       0.00022300       0.05680087 </v>
   <v>       0.00005268       0.00001233      -0.01399303 </v>
   <v>      -0.00001066      -0.00008425      -0.00152326 </v>
   <v>      -0.00013223      -0.00067503       0.05680087 </v>
   <v>       0.00013197       0.00007620       0.00544551 </v>
   <v>      -0.00007830       0.00003289      -0.00152326 </v>
   <v>       0.00011752       0.00006785      -0.00702624 </v>
   <v>       0.00003702       0.00003945      -0.01399303 </v>
   <v>       0.00062495       0.00036081      -0.08098842 </v>
   <v>      -0.00005268      -0.00001233      -0.01399303 </v>
   <v>       0.00065071      -0.00022300       0.05680087 </v>
   <v>       0.00007830      -0.00003289      -0.00152326 </v>
   <v>      -0.00003702      -0.00003945      -0.01399303 </v>
   <v>      -0.00011752      -0.00006785      -0.00702624 </v>
   <v>       0.00001066       0.00008425      -0.00152326 </v>
   <v>      -0.00013197      -0.00007620       0.00544551 </v>
   <v>       0.00013223       0.00067503       0.05680087 </v>
  </varray>
  <varray name="stress" >
   <v>      -0.16754905       0.00027211       0.00000000 </v>
   <v>       0.00027211      -0.16786324       0.00000000 </v>
   <v>       0.00000000       0.00000000      -0.57081684 </v>
  </varray>
  <energy>
   <i name="e_fr_energy">   -166.07710483 </i>
   <i name="e_wo_entrp">   -166.07480202 </i>
   <i name="e_0_energy">   -166.07595343 </i>
  </energy>
  <time name="totalsc">   89.67   89.50</time>
  <eigenvalues>
   <array>
    <dimension dim="1">band</dimension>
    <dimension dim="2">kpoint</dimension>
    <dimension dim="3">spin</dimension>
    <field>eigene</field>
    <field>occ</field>
    <set>
     <set comment="spin 1">
      <set comment="kpoint 1">
       <r>  -22.2558    1.0000 </r>
       <r>  -19.6733    1.0000 </r>
       <r>  -19.6733    1.0000 </r>
       <r>  -19.6733    1.0000 </r>
       <r>  -19.6733    1.0000 </r>
       <r>  -19.6732    1.0000 </r>
       <r>  -19.6732    1.0000 </r>
       <r>  -15.3408    1.0000 </r>
       <r>  -15.3407    1.0000 </r>
       <r>  -15.3407    1.0000 </r>
       <r>  -15.3406    1.0000 </r>
       <r>  -13.2896    1.0000 </r>
       <r>  -13.2895    1.0000 </r>
       <r>  -12.3748    1.0000 </r>
       <r>  -12.3747    1.0000 </r>
       <r>  -12.3747    1.0000 </r>
       <r>  -12.3746    1.0000 </r>
       <r>  -12.3746    1.0000 </r>
       <r>  -12.3746    1.0000 </r>
       <r>  -10.3598    1.0000 </r>
       <r>   -8.5237    1.0000 </r>
       <r>   -8.5236    1.0000 </r>
       <r>   -8.5236    1.0000 </r>
       <r>   -8.5236    1.0000 </r>
       <r>   -8.5236    1.0000 </r>
       <r>   -8.5235    1.0000 </r>
       <r>   -7.3709    1.0000 </r>
       <r>   -7.3709    1.0000 </r>
       <r>   -7.3709    1.0000 </r>
       <r>   -7.3708    1.0000 </r>
       <r>   -7.3707    1.0000 </r>
       <r>   -7.3706    1.0000 </r>
       <r>   -5.7847    1.0000 </r>
       <r>   -5.7845    1.0000 </r>
       <r>   -2.7554    0.5012 </r>
       <r>   -2.7553    0.4998 </r>
       <r>   -2.7553    0.4998 </r>
       <r>   -2.7552    0.4993 </r>
       <r>    0.5195    0.0000 </r>
       <r>    1.3119    0.0000 </r>
       <r>    1.6348    0.0000 </r>
       <r>    2.1434    0.0000 </r>
       <r>    2.1440    0.0000 </r>
       <r>    2.1441    0.0000 </r>
       <r>    2.1442    0.0000 </r>
       <r>    2.1442    0.0000 </r>
      </set>
      <set comment="kpoint 2">
       <r>  -22.2022    1.0000 </r>
       <r>  -20.3488    1.0000 </r>
       <r>  -19.9842    1.0000 </r>
       <r>  -19.9841    1.0000 </r>
       <r>  -19.2624    1.0000 </r>
       <r>  -19.2624    1.0000 </r>
       <r>  -18.9061    1.0000 </r>
       <r>  -15.9952    1.0000 </r>
       <r>  -15.9952    1.0000 </r>
       <r>  -14.9132    1.0000 </r>
       <r>  -14.9132    1.0000 </r>
       <r>  -13.5975    1.0000 </r>
       <r>  -12.9702    1.0000 </r>
       <r>  -12.9701    1.0000 </r>
       <r>  -12.9563    1.0000 </r>
       <r>  -12.9563    1.0000 </r>
       <r>  -11.7352    1.0000 </r>
       <r>  -11.7350    1.0000 </r>
       <r>  -11.1177    1.0000 </r>
       <r>  -10.2958    1.0000 </r>
       <r>   -8.8635    1.0000 </r>
       <r>   -8.8634    1.0000 </r>
       <r>   -8.8292    1.0000 </r>
       <r>   -8.5097    1.0000 </r>
       <r>   -8.5096    1.0000 </r>
       <r>   -8.1320    1.0000 </r>
       <r>   -8.1268    1.0000 </r>
       <r>   -7.7133    1.0000 </r>
       <r>   -7.7132    1.0000 </r>
       <r>   -6.9227    1.0000 </r>
       <r>   -6.9227    1.0000 </r>
       <r>   -6.5569    1.0000 </r>
       <r>   -6.0049    1.0000 </r>
       <r>   -5.9002    1.0000 </r>
       <r>   -3.5267    1.0000 </r>
       <r>   -3.5266    1.0000 </r>
       <r>   -2.0047    0.0000 </r>
       <r>   -2.0046    0.0000 </r>
       <r>    0.5921    0.0000 </r>
       <r>    0.8750    0.0000 </r>
       <r>    1.3855    0.0000 </r>
       <r>    1.4735    0.0000 </r>
       <r>    1.4738    0.0000 </r>
       <r>    1.7092    0.0000 </r>
       <r>    2.6301    0.0000 </r>
       <r>    2.7609    0.0000 </r>
      </set>
      <set comment="kpoint 3">
       <r>  -22.2022    1.0000 </r>
       <r>  -20.3488    1.0000 </r>
       <r>  -19.9841    1.0000 </r>
       <r>  -19.9841    1.0000 </r>
       <r>  -19.2624    1.0000 </r>
       <r>  -19.2624    1.0000 </r>
       <r>  -18.9061    1.0000 </r>
       <r>  -15.9952    1.0000 </r>
       <r>  -15.9952    1.0000 </r>
       <r>  -14.9132    1.0000 </r>
       <r>  -14.9132    1.0000 </r>
       <r>  -13.5975    1.0000 </r>
       <r>  -12.9702    1.0000 </r>
       <r>  -12.9701    1.0000 </r>
       <r>  -12.9563    1.0000 </r>
       <r>  -12.9562    1.0000 </r>
       <r>  -11.7352    1.0000 </r>
       <r>  -11.7351    1.0000 </r>
       <r>  -11.1177    1.0000 </r>
       <r>  -10.2958    1.0000 </r>
       <r>   -8.8635    1.0000 </r>
       <r>   -8.8634    1.0000 </r>
       <r>   -8.8292    1.0000 </r>
       <r>   -8.5097    1.0000 </r>
       <r>   -8.5096    1.0000 </r>
       <r>   -8.1319    1.0000 </r>
       <r>   -8.1268    1.0000 </r>
       <r>   -7.7133    1.0000 </r>
       <r>   -7.7132    1.0000 </r>
       <r>   -6.9227    1.0000 </r>
       <r>   -6.9227    1.0000 </r>
       <r>   -6.5570    1.0000 </r>
       <r>   -6.0047    1.0000 </r>
       <r>   -5.9003    1.0000 </r>
       <r>   -3.5267    1.0000 </r>
       <r>   -3.5266    1.0000 </r>
       <r>   -2.0047    0.0000 </r>
       <r>   -2.0046    0.0000 </r>
       <r>    0.5922    0.0000 </r>
       <r>    0.8748    0.0000 </r>
       <r>    1.3855    0.0000 </r>
       <r>    1.4736    0.0000 </r>
       <r>    1.4737    0.0000 </r>
       <r>    1.7092    0.0000 </r>
       <r>    2.6301    0.0000 </r>
       <r>    2.7610    0.0000 </r>
      </set>
      <set comment="kpoint 4">
       <r>  -22.0417    1.0000 </r>
       <r>  -20.9265    1.0000 </r>
       <r>  -20.1926    1.0000 </r>
       <r>  -20.1926    1.0000 </r>
       <r>  -18.7553    1.0000 </r>
       <r>  -18.7552    1.0000 </r>
       <r>  -18.0629    1.0000 </r>
       <r>  -16.7451    1.0000 </r>
       <r>  -16.7451    1.0000 </r>
       <r>  -14.7531    1.0000 </r>
       <r>  -14.6244    1.0000 </r>
       <r>  -14.6243    1.0000 </r>
       <r>  -13.4994    1.0000 </r>
       <r>  -13.4993    1.0000 </r>
       <r>  -12.1838    1.0000 </r>
       <r>  -12.1838    1.0000 </r>
       <r>  -11.0980    1.0000 </r>
       <r>  -11.0979    1.0000 </r>
       <r>  -10.1046    1.0000 </r>
       <r>   -9.8601    1.0000 </r>
       <r>   -9.4951    1.0000 </r>
       <r>   -9.4951    1.0000 </r>
       <r>   -9.0381    1.0000 </r>
       <r>   -8.7926    1.0000 </r>
       <r>   -8.7612    1.0000 </r>
       <r>   -8.7602    1.0000 </r>
       <r>   -7.9447    1.0000 </r>
       <r>   -7.9446    1.0000 </r>
       <r>   -7.6713    1.0000 </r>
       <r>   -6.6227    1.0000 </r>
       <r>   -6.3778    1.0000 </r>
       <r>   -6.3774    1.0000 </r>
       <r>   -6.2166    1.0000 </r>
       <r>   -5.7648    1.0000 </r>
       <r>   -4.2990    1.0000 </r>
       <r>   -4.2989    1.0000 </r>
       <r>   -1.2829    0.0000 </r>
       <r>   -1.2827    0.0000 </r>
       <r>   -0.2381    0.0000 </r>
       <r>    0.7867    0.0000 </r>
       <r>    0.7878    0.0000 </r>
       <r>    0.8110    0.0000 </r>
       <r>    1.6062    0.0000 </r>
       <r>    1.9326    0.0000 </r>
       <r>    2.3341    0.0000 </r>
       <r>    2.8514    0.0000 </r>
      </set>
      <set comment="kpoint 5">
       <r>  -22.0417    1.0000 </r>
       <r>  -20.9265    1.0000 </r>
       <r>  -20.1926    1.0000 </r>
       <r>  -20.1926    1.0000 </r>
       <r>  -18.7553    1.0000 </r>
       <r>  -18.7553    1.0000 </r>
       <r>  -18.0629    1.0000 </r>
       <r>  -16.7451    1.0000 </r>
       <r>  -16.7451    1.0000 </r>
       <r>  -14.7530    1.0000 </r>
       <r>  -14.6244    1.0000 </r>
       <r>  -14.6244    1.0000 </r>
       <r>  -13.4994    1.0000 </r>
       <r>  -13.4994    1.0000 </r>
       <r>  -12.1838    1.0000 </r>
       <r>  -12.1838    1.0000 </r>
       <r>  -11.0980    1.0000 </r>
       <r>  -11.0980    1.0000 </r>
       <r>  -10.1046    1.0000 </r>
       <r>   -9.8600    1.0000 </r>
       <r>   -9.4952    1.0000 </r>
       <r>   -9.4951    1.0000 </r>
       <r>   -9.0381    1.0000 </r>
       <r>   -8.7924    1.0000 </r>
       <r>   -8.7612    1.0000 </r>
       <r>   -8.7604    1.0000 </r>
       <r>   -7.9447    1.0000 </r>
       <r>   -7.9446    1.0000 </r>
       <r>   -7.6713    1.0000 </r>
       <r>   -6.6226    1.0000 </r>
       <r>   -6.3777    1.0000 </r>
       <r>   -6.3774    1.0000 </r>
       <r>   -6.2168    1.0000 </r>
       <r>   -5.7648    1.0000 </r>
       <r>   -4.2990    1.0000 </r>
       <r>   -4.2989    1.0000 </r>
       <r>   -1.2829    0.0000 </r>
       <r>   -1.2828    0.0000 </r>
       <r>   -0.2380    0.0000 </r>
       <r>    0.7855    0.0000 </r>
       <r>    0.7877    0.0000 </r>
       <r>    0.8123    0.0000 </r>
       <r>    1.6062    0.0000 </r>
       <r>    1.9326    0.0000 </r>
       <r>    2.3341    0.0000 </r>
       <r>    2.8514    0.0000 </r>
      </set>
      <set comment="kpoint 6">
       <r>  -21.7749    1.0000 </r>
       <r>  -21.4026    1.0000 </r>
       <r>  -20.2972    1.0000 </r>
       <r>  -20.2972    1.0000 </r>
       <r>  -18.1581    1.0000 </r>
       <r>  -18.1581    1.0000 </r>
       <r>  -17.4813    1.0000 </r>
       <r>  -17.4813    1.0000 </r>
       <r>  -17.2288    1.0000 </r>
       <r>  -15.7457    1.0000 </r>
       <r>  -14.3222    1.0000 </r>
       <r>  -14.3221    1.0000 </r>
       <r>  -13.9511    1.0000 </r>
       <r>  -13.9509    1.0000 </r>
       <r>  -11.2586    1.0000 </r>
       <r>  -11.2586    1.0000 </r>
       <r>  -10.5973    1.0000 </r>
       <r>  -10.5971    1.0000 </r>
       <r>  -10.3278    1.0000 </r>
       <r>  -10.3278    1.0000 </r>
       <r>   -9.7876    1.0000 </r>
       <r>   -9.3483    1.0000 </r>
       <r>   -9.1440    1.0000 </r>
       <r>   -9.0904    1.0000 </r>
       <r>   -9.0903    1.0000 </r>
       <r>   -8.6463    1.0000 </r>
       <r>   -8.0610    1.0000 </r>
       <r>   -8.0610    1.0000 </r>
       <r>   -7.5385    1.0000 </r>
       <r>   -7.1688    1.0000 </r>
       <r>   -6.6645    1.0000 </r>
       <r>   -5.7469    1.0000 </r>
       <r>   -5.7469    1.0000 </r>
       <r>   -5.1980    1.0000 </r>
       <r>   -5.0472    1.0000 </r>
       <r>   -5.0472    1.0000 </r>
       <r>   -0.9701    0.0000 </r>
       <r>   -0.5850    0.0000 </r>
       <r>   -0.5847    0.0000 </r>
       <r>    0.1016    0.0000 </r>
       <r>    0.1018    0.0000 </r>
       <r>    1.1735    0.0000 </r>
       <r>    1.6817    0.0000 </r>
       <r>    1.9736    0.0000 </r>
       <r>    2.3050    0.0000 </r>
       <r>    2.4866    0.0000 </r>
      </set>
      <set comment="kpoint 7">
       <r>  -21.7749    1.0000 </r>
       <r>  -21.4026    1.0000 </r>
       <r>  -20.2972    1.0000 </r>
       <r>  -20.2972    1.0000 </r>
       <r>  -18.1581    1.0000 </r>
       <r>  -18.1581    1.0000 </r>
       <r>  -17.4813    1.0000 </r>
       <r>  -17.4813    1.0000 </r>
       <r>  -17.2289    1.0000 </r>
       <r>  -15.7456    1.0000 </r>
       <r>  -14.3222    1.0000 </r>
       <r>  -14.3221    1.0000 </r>
       <r>  -13.9510    1.0000 </r>
       <r>  -13.9510    1.0000 </r>
       <r>  -11.2586    1.0000 </r>
       <r>  -11.2586    1.0000 </r>
       <r>  -10.5973    1.0000 </r>
       <r>  -10.5972    1.0000 </r>
       <r>  -10.3278    1.0000 </r>
       <r>  -10.3278    1.0000 </r>
       <r>   -9.7876    1.0000 </r>
       <r>   -9.3482    1.0000 </r>
       <r>   -9.1439    1.0000 </r>
       <r>   -9.0903    1.0000 </r>
       <r>   -9.0903    1.0000 </r>
       <r>   -8.6462    1.0000 </r>
       <r>   -8.0611    1.0000 </r>
       <r>   -8.0611    1.0000 </r>
       <r>   -7.5384    1.0000 </r>
       <r>   -7.1688    1.0000 </r>
       <r>   -6.6646    1.0000 </r>
       <r>   -5.7469    1.0000 </r>
       <r>   -5.7469    1.0000 </r>
       <r>   -5.1980    1.0000 </r>
       <r>   -5.0472    1.0000 </r>
       <r>   -5.0472    1.0000 </r>
       <r>   -0.9701    0.0000 </r>
       <r>   -0.5849    0.0000 </r>
       <r>   -0.5848    0.0000 </r>
       <r>    0.1017    0.0000 </r>
       <r>    0.1018    0.0000 </r>
       <r>    1.1735    0.0000 </r>
       <r>    1.6817    0.0000 </r>
       <r>    1.9736    0.0000 </r>
       <r>    2.3050    0.0000 </r>
       <r>    2.4866    0.0000 </r>
      </set>
      <set comment="kpoint 8">
       <r>  -22.0952    1.0000 </r>
       <r>  -20.6109    1.0000 </r>
       <r>  -20.6108    1.0000 </r>
       <r>  -19.5193    1.0000 </r>
       <r>  -19.5193    1.0000 </r>
       <r>  -18.4549    1.0000 </r>
       <r>  -18.4548    1.0000 </r>
       <r>  -16.7786    1.0000 </r>
       <r>  -16.1617    1.0000 </r>
       <r>  -15.2403    1.0000 </r>
       <r>  -14.2550    1.0000 </r>
       <r>  -14.1586    1.0000 </r>
       <r>  -14.1585    1.0000 </r>
       <r>  -12.6046    1.0000 </r>
       <r>  -12.3071    1.0000 </r>
       <r>  -12.3071    1.0000 </r>
       <r>  -12.2712    1.0000 </r>
       <r>  -10.4865    1.0000 </r>
       <r>  -10.4864    1.0000 </r>
       <r>  -10.1682    1.0000 </r>
       <r>   -9.1766    1.0000 </r>
       <r>   -9.1765    1.0000 </r>
       <r>   -9.1237    1.0000 </r>
       <r>   -9.1236    1.0000 </r>
       <r>   -8.4260    1.0000 </r>
       <r>   -8.4258    1.0000 </r>
       <r>   -8.0747    1.0000 </r>
       <r>   -8.0747    1.0000 </r>
       <r>   -7.1908    1.0000 </r>
       <r>   -7.1907    1.0000 </r>
       <r>   -6.4087    1.0000 </r>
       <r>   -6.1322    1.0000 </r>
       <r>   -6.1043    1.0000 </r>
       <r>   -6.1039    1.0000 </r>
       <r>   -4.2578    1.0000 </r>
       <r>   -3.8994    1.0000 </r>
       <r>   -1.7105    0.0000 </r>
       <r>   -1.2652    0.0000 </r>
       <r>    0.2727    0.0000 </r>
       <r>    0.2730    0.0000 </r>
       <r>    0.7377    0.0000 </r>
       <r>    1.5327    0.0000 </r>
       <r>    1.8581    0.0000 </r>
       <r>    2.0113    0.0000 </r>
       <r>    2.0117    0.0000 </r>
       <r>    2.7776    0.0000 </r>
      </set>
      <set comment="kpoint 9">
       <r>  -22.0952    1.0000 </r>
       <r>  -20.6109    1.0000 </r>
       <r>  -20.6109    1.0000 </r>
       <r>  -19.5193    1.0000 </r>
       <r>  -19.5193    1.0000 </r>
       <r>  -18.4549    1.0000 </r>
       <r>  -18.4548    1.0000 </r>
       <r>  -16.7787    1.0000 </r>
       <r>  -16.1617    1.0000 </r>
       <r>  -15.2404    1.0000 </r>
       <r>  -14.2549    1.0000 </r>
       <r>  -14.1586    1.0000 </r>
       <r>  -14.1585    1.0000 </r>
       <r>  -12.6046    1.0000 </r>
       <r>  -12.3071    1.0000 </r>
       <r>  -12.3071    1.0000 </r>
       <r>  -12.2711    1.0000 </r>
       <r>  -10.4865    1.0000 </r>
       <r>  -10.4863    1.0000 </r>
       <r>  -10.1681    1.0000 </r>
       <r>   -9.1766    1.0000 </r>
       <r>   -9.1765    1.0000 </r>
       <r>   -9.1237    1.0000 </r>
       <r>   -9.1236    1.0000 </r>
       <r>   -8.4260    1.0000 </r>
       <r>   -8.4258    1.0000 </r>
       <r>   -8.0748    1.0000 </r>
       <r>   -8.0746    1.0000 </r>
       <r>   -7.1907    1.0000 </r>
       <r>   -7.1907    1.0000 </r>
       <r>   -6.4086    1.0000 </r>
       <r>   -6.1327    1.0000 </r>
       <r>   -6.1042    1.0000 </r>
       <r>   -6.1036    1.0000 </r>
       <r>   -4.2578    1.0000 </r>
       <r>   -3.8993    1.0000 </r>
       <r>   -1.7105    0.0000 </r>
       <r>   -1.2652    0.0000 </r>
       <r>    0.2729    0.0000 </r>
       <r>    0.2730    0.0000 </r>
       <r>    0.7375    0.0000 </r>
       <r>    1.5327    0.0000 </r>
       <r>    1.8581    0.0000 </r>
       <r>    2.0115    0.0000 </r>
       <r>    2.0116    0.0000 </r>
       <r>    2.7776    0.0000 </r>
      </set>
      <set comment="kpoint 10">
       <r>  -21.8815    1.0000 </r>
       <r>  -21.1378    1.0000 </r>
       <r>  -20.7687    1.0000 </r>
       <r>  -19.6743    1.0000 </r>
       <r>  -18.9580    1.0000 </r>
       <r>  -17.9166    1.0000 </r>
       <r>  -17.5935    1.0000 </r>
       <r>  -17.5729    1.0000 </r>
       <r>  -16.6711    1.0000 </r>
       <r>  -15.2537    1.0000 </r>
       <r>  -15.2500    1.0000 </r>
       <r>  -14.6349    1.0000 </r>
       <r>  -13.7273    1.0000 </r>
       <r>  -12.8211    1.0000 </r>
       <r>  -11.8986    1.0000 </r>
       <r>  -11.6826    1.0000 </r>
       <r>  -11.3888    1.0000 </r>
       <r>  -10.0394    1.0000 </r>
       <r>   -9.9196    1.0000 </r>
       <r>   -9.9110    1.0000 </r>
       <r>   -9.7108    1.0000 </r>
       <r>   -9.6303    1.0000 </r>
       <r>   -9.2826    1.0000 </r>
       <r>   -9.2646    1.0000 </r>
       <r>   -9.0374    1.0000 </r>
       <r>   -8.6066    1.0000 </r>
       <r>   -8.2589    1.0000 </r>
       <r>   -7.5790    1.0000 </r>
       <r>   -7.3540    1.0000 </r>
       <r>   -7.1430    1.0000 </r>
       <r>   -6.5688    1.0000 </r>
       <r>   -6.5455    1.0000 </r>
       <r>   -5.5814    1.0000 </r>
       <r>   -5.3854    1.0000 </r>
       <r>   -5.0741    1.0000 </r>
       <r>   -4.4328    1.0000 </r>
       <r>   -1.2966    0.0000 </r>
       <r>   -0.6853    0.0000 </r>
       <r>   -0.4250    0.0000 </r>
       <r>   -0.2984    0.0000 </r>
       <r>    1.0282    0.0000 </r>
       <r>    1.2241    0.0000 </r>
       <r>    1.8268    0.0000 </r>
       <r>    2.0447    0.0000 </r>
       <r>    2.1561    0.0000 </r>
       <r>    2.4027    0.0000 </r>
      </set>
      <set comment="kpoint 11">
       <r>  -21.8815    1.0000 </r>
       <r>  -21.1378    1.0000 </r>
       <r>  -20.7687    1.0000 </r>
       <r>  -19.6743    1.0000 </r>
       <r>  -18.9580    1.0000 </r>
       <r>  -17.9166    1.0000 </r>
       <r>  -17.5935    1.0000 </r>
       <r>  -17.5729    1.0000 </r>
       <r>  -16.6711    1.0000 </r>
       <r>  -15.2537    1.0000 </r>
       <r>  -15.2501    1.0000 </r>
       <r>  -14.6349    1.0000 </r>
       <r>  -13.7272    1.0000 </r>
       <r>  -12.8211    1.0000 </r>
       <r>  -11.8987    1.0000 </r>
       <r>  -11.6826    1.0000 </r>
       <r>  -11.3888    1.0000 </r>
       <r>  -10.0394    1.0000 </r>
       <r>   -9.9196    1.0000 </r>
       <r>   -9.9110    1.0000 </r>
       <r>   -9.7108    1.0000 </r>
       <r>   -9.6302    1.0000 </r>
       <r>   -9.2825    1.0000 </r>
       <r>   -9.2645    1.0000 </r>
       <r>   -9.0374    1.0000 </r>
       <r>   -8.6066    1.0000 </r>
       <r>   -8.2588    1.0000 </r>
       <r>   -7.5790    1.0000 </r>
       <r>   -7.3540    1.0000 </r>
       <r>   -7.1428    1.0000 </r>
       <r>   -6.5680    1.0000 </r>
       <r>   -6.5465    1.0000 </r>
       <r>   -5.5814    1.0000 </r>
       <r>   -5.3855    1.0000 </r>
       <r>   -5.0742    1.0000 </r>
       <r>   -4.4328    1.0000 </r>
       <r>   -1.2967    0.0000 </r>
       <r>   -0.6852    0.0000 </r>
       <r>   -0.4249    0.0000 </r>
       <r>   -0.2984    0.0000 </r>
       <r>    1.0280    0.0000 </r>
       <r>    1.2243    0.0000 </r>
       <r>    1.8268    0.0000 </r>
       <r>    2.0447    0.0000 </r>
       <r>    2.1560    0.0000 </r>
       <r>    2.4022    0.0000 </r>
      </set>
      <set comment="kpoint 12">
       <r>  -21.8815    1.0000 </r>
       <r>  -21.1378    1.0000 </r>
       <r>  -20.7687    1.0000 </r>
       <r>  -19.6743    1.0000 </r>
       <r>  -18.9580    1.0000 </r>
       <r>  -17.9166    1.0000 </r>
       <r>  -17.5935    1.0000 </r>
       <r>  -17.5729    1.0000 </r>
       <r>  -16.6711    1.0000 </r>
       <r>  -15.2537    1.0000 </r>
       <r>  -15.2500    1.0000 </r>
       <r>  -14.6349    1.0000 </r>
       <r>  -13.7273    1.0000 </r>
       <r>  -12.8210    1.0000 </r>
       <r>  -11.8986    1.0000 </r>
       <r>  -11.6826    1.0000 </r>
       <r>  -11.3888    1.0000 </r>
       <r>  -10.0395    1.0000 </r>
       <r>   -9.9178    1.0000 </r>
       <r>   -9.9129    1.0000 </r>
       <r>   -9.7108    1.0000 </r>
       <r>   -9.6302    1.0000 </r>
       <r>   -9.2825    1.0000 </r>
       <r>   -9.2645    1.0000 </r>
       <r>   -9.0374    1.0000 </r>
       <r>   -8.6067    1.0000 </r>
       <r>   -8.2588    1.0000 </r>
       <r>   -7.5790    1.0000 </r>
       <r>   -7.3540    1.0000 </r>
       <r>   -7.1429    1.0000 </r>
       <r>   -6.5688    1.0000 </r>
       <r>   -6.5456    1.0000 </r>
       <r>   -5.5814    1.0000 </r>
       <r>   -5.3854    1.0000 </r>
       <r>   -5.0741    1.0000 </r>
       <r>   -4.4329    1.0000 </r>
       <r>   -1.2966    0.0000 </r>
       <r>   -0.6852    0.0000 </r>
       <r>   -0.4250    0.0000 </r>
       <r>   -0.2985    0.0000 </r>
       <r>    1.0282    0.0000 </r>
       <r>    1.2242    0.0000 </r>
       <r>    1.8268    0.0000 </r>
       <r>    2.0445    0.0000 </r>
       <r>    2.1561    0.0000 </r>
       <r>    2.4023    0.0000 </r>
      </set>
      <set comment="kpoint 13">
       <r>  -21.5620    1.0000 </r>
       <r>  -21.5619    1.0000 </r>
       <r>  -20.8214    1.0000 </r>
       <r>  -19.7261    1.0000 </r>
       <r>  -18.3060    1.0000 </r>
       <r>  -18.3059    1.0000 </r>
       <r>  -17.3075    1.0000 </r>
       <r>  -17.3075    1.0000 </r>
       <r>  -16.9870    1.0000 </r>
       <r>  -15.9391    1.0000 </r>
       <r>  -15.0097    1.0000 </r>
       <r>  -15.0096    1.0000 </r>
       <r>  -13.2820    1.0000 </r>
       <r>  -13.2819    1.0000 </r>
       <r>  -11.3579    1.0000 </r>
       <r>  -10.9878    1.0000 </r>
       <r>  -10.9878    1.0000 </r>
       <r>  -10.5000    1.0000 </r>
       <r>  -10.4999    1.0000 </r>
       <r>   -9.9054    1.0000 </r>
       <r>   -9.6352    1.0000 </r>
       <r>   -9.5357    1.0000 </r>
       <r>   -9.5356    1.0000 </r>
       <r>   -9.3360    1.0000 </r>
       <r>   -8.6671    1.0000 </r>
       <r>   -8.4186    1.0000 </r>
       <r>   -8.1250    1.0000 </r>
       <r>   -8.1250    1.0000 </r>
       <r>   -7.4091    1.0000 </r>
       <r>   -7.0535    1.0000 </r>
       <r>   -7.0533    1.0000 </r>
       <r>   -5.8557    1.0000 </r>
       <r>   -5.8556    1.0000 </r>
       <r>   -5.0628    1.0000 </r>
       <r>   -5.0125    1.0000 </r>
       <r>   -5.0123    1.0000 </r>
       <r>   -1.0893    0.0000 </r>
       <r>   -0.8233    0.0000 </r>
       <r>   -0.8232    0.0000 </r>
       <r>    0.4103    0.0000 </r>
       <r>    0.4105    0.0000 </r>
       <r>    1.4641    0.0000 </r>
       <r>    1.4643    0.0000 </r>
       <r>    2.2671    0.0000 </r>
       <r>    2.2671    0.0000 </r>
       <r>    2.6029    0.0000 </r>
      </set>
      <set comment="kpoint 14">
       <r>  -21.5620    1.0000 </r>
       <r>  -21.5619    1.0000 </r>
       <r>  -20.8214    1.0000 </r>
       <r>  -19.7261    1.0000 </r>
       <r>  -18.3060    1.0000 </r>
       <r>  -18.3060    1.0000 </r>
       <r>  -17.3075    1.0000 </r>
       <r>  -17.3075    1.0000 </r>
       <r>  -16.9870    1.0000 </r>
       <r>  -15.9390    1.0000 </r>
       <r>  -15.0097    1.0000 </r>
       <r>  -15.0096    1.0000 </r>
       <r>  -13.2820    1.0000 </r>
       <r>  -13.2819    1.0000 </r>
       <r>  -11.3580    1.0000 </r>
       <r>  -10.9879    1.0000 </r>
       <r>  -10.9878    1.0000 </r>
       <r>  -10.5000    1.0000 </r>
       <r>  -10.4999    1.0000 </r>
       <r>   -9.9053    1.0000 </r>
       <r>   -9.6352    1.0000 </r>
       <r>   -9.5358    1.0000 </r>
       <r>   -9.5356    1.0000 </r>
       <r>   -9.3360    1.0000 </r>
       <r>   -8.6671    1.0000 </r>
       <r>   -8.4185    1.0000 </r>
       <r>   -8.1250    1.0000 </r>
       <r>   -8.1249    1.0000 </r>
       <r>   -7.4091    1.0000 </r>
       <r>   -7.0535    1.0000 </r>
       <r>   -7.0534    1.0000 </r>
       <r>   -5.8557    1.0000 </r>
       <r>   -5.8556    1.0000 </r>
       <r>   -5.0628    1.0000 </r>
       <r>   -5.0124    1.0000 </r>
       <r>   -5.0124    1.0000 </r>
       <r>   -1.0892    0.0000 </r>
       <r>   -0.8233    0.0000 </r>
       <r>   -0.8232    0.0000 </r>
       <r>    0.4103    0.0000 </r>
       <r>    0.4105    0.0000 </r>
       <r>    1.4641    0.0000 </r>
       <r>    1.4642    0.0000 </r>
       <r>    2.2671    0.0000 </r>
       <r>    2.2671    0.0000 </r>
       <r>    2.4851    0.0000 </r>
      </set>
      <set comment="kpoint 15">
       <r>  -21.6151    1.0000 </r>
       <r>  -21.2437    1.0000 </r>
       <r>  -21.2436    1.0000 </r>
       <r>  -19.0600    1.0000 </r>
       <r>  -19.0600    1.0000 </r>
       <r>  -18.3556    1.0000 </r>
       <r>  -17.0888    1.0000 </r>
       <r>  -17.0887    1.0000 </r>
       <r>  -16.7115    1.0000 </r>
       <r>  -15.6765    1.0000 </r>
       <r>  -15.6143    1.0000 </r>
       <r>  -15.6142    1.0000 </r>
       <r>  -12.9180    1.0000 </r>
       <r>  -12.2633    1.0000 </r>
       <r>  -12.2632    1.0000 </r>
       <r>  -11.3540    1.0000 </r>
       <r>  -10.5572    1.0000 </r>
       <r>  -10.5494    1.0000 </r>
       <r>  -10.5493    1.0000 </r>
       <r>   -9.8196    1.0000 </r>
       <r>   -9.8195    1.0000 </r>
       <r>   -9.5986    1.0000 </r>
       <r>   -9.1610    1.0000 </r>
       <r>   -9.1609    1.0000 </r>
       <r>   -8.8220    1.0000 </r>
       <r>   -8.8219    1.0000 </r>
       <r>   -7.8829    1.0000 </r>
       <r>   -7.6862    1.0000 </r>
       <r>   -7.6861    1.0000 </r>
       <r>   -7.0826    1.0000 </r>
       <r>   -6.6646    1.0000 </r>
       <r>   -6.6645    1.0000 </r>
       <r>   -5.8934    1.0000 </r>
       <r>   -5.0051    1.0000 </r>
       <r>   -5.0051    1.0000 </r>
       <r>   -4.6730    1.0000 </r>
       <r>   -1.2277    0.0000 </r>
       <r>   -1.0247    0.0000 </r>
       <r>   -1.0246    0.0000 </r>
       <r>    0.5280    0.0000 </r>
       <r>    1.3915    0.0000 </r>
       <r>    1.4819    0.0000 </r>
       <r>    1.4825    0.0000 </r>
       <r>    1.9001    0.0000 </r>
       <r>    1.9005    0.0000 </r>
       <r>    2.1939    0.0000 </r>
      </set>
      <set comment="kpoint 16">
       <r>  -21.6151    1.0000 </r>
       <r>  -21.2437    1.0000 </r>
       <r>  -21.2436    1.0000 </r>
       <r>  -19.0600    1.0000 </r>
       <r>  -19.0600    1.0000 </r>
       <r>  -18.3556    1.0000 </r>
       <r>  -17.0888    1.0000 </r>
       <r>  -17.0888    1.0000 </r>
       <r>  -16.7115    1.0000 </r>
       <r>  -15.6766    1.0000 </r>
       <r>  -15.6143    1.0000 </r>
       <r>  -15.6142    1.0000 </r>
       <r>  -12.9180    1.0000 </r>
       <r>  -12.2633    1.0000 </r>
       <r>  -12.2633    1.0000 </r>
       <r>  -11.3541    1.0000 </r>
       <r>  -10.5572    1.0000 </r>
       <r>  -10.5493    1.0000 </r>
       <r>  -10.5493    1.0000 </r>
       <r>   -9.8196    1.0000 </r>
       <r>   -9.8195    1.0000 </r>
       <r>   -9.5985    1.0000 </r>
       <r>   -9.1610    1.0000 </r>
       <r>   -9.1609    1.0000 </r>
       <r>   -8.8220    1.0000 </r>
       <r>   -8.8220    1.0000 </r>
       <r>   -7.8828    1.0000 </r>
       <r>   -7.6861    1.0000 </r>
       <r>   -7.6860    1.0000 </r>
       <r>   -7.0826    1.0000 </r>
       <r>   -6.6646    1.0000 </r>
       <r>   -6.6646    1.0000 </r>
       <r>   -5.8934    1.0000 </r>
       <r>   -5.0051    1.0000 </r>
       <r>   -5.0051    1.0000 </r>
       <r>   -4.6730    1.0000 </r>
       <r>   -1.2278    0.0000 </r>
       <r>   -1.0247    0.0000 </r>
       <r>   -1.0246    0.0000 </r>
       <r>    0.5281    0.0000 </r>
       <r>    1.3907    0.0000 </r>
       <r>    1.4822    0.0000 </r>
       <r>    1.4827    0.0000 </r>
       <r>    1.9001    0.0000 </r>
       <r>    1.9005    0.0000 </r>
       <r>    2.1939    0.0000 </r>
      </set>
     </set>
    </set>
   </array>
  </eigenvalues>
  <separator name="orbital magnetization" >
   <v name="MAGDIPOLOUT">      0.00000000      0.00000000      0.00000000</v>
  </separator>
  <dos>
   <i name="efermi">     -2.75529212 </i>
   <total>
    <array>
     <dimension dim="1">gridpoints</dimension>
     <dimension dim="2">spin</dimension>
     <field>energy</field>
     <field>total</field>
     <field>integrated</field>
     <set>
      <set comment="spin 1">
       <r>   -23.5112     0.0000     0.0000 </r>
       <r>   -23.4191     0.0000     0.0000 </r>
       <r>   -23.3271     0.0000     0.0000 </r>
       <r>   -23.2350     0.0000     0.0000 </r>
       <r>   -23.1429     0.0000     0.0000 </r>
       <r>   -23.0509     0.0000     0.0000 </r>
       <r>   -22.9588     0.0000     0.0000 </r>
       <r>   -22.8668     0.0000     0.0000 </r>
       <r>   -22.7747     0.0000     0.0000 </r>
       <r>   -22.6826     0.0000     0.0000 </r>
       <r>   -22.5906     0.0000     0.0000 </r>
       <r>   -22.4985     0.0000     0.0000 </r>
       <r>   -22.4065     0.0000     0.0000 </r>
       <r>   -22.3144     0.0236     0.0022 </r>
       <r>   -22.2223     1.1016     0.1036 </r>
       <r>   -22.1303     2.3657     0.3214 </r>
       <r>   -22.0382     3.5650     0.6496 </r>
       <r>   -21.9462     1.5381     0.7912 </r>
       <r>   -21.8541     4.0172     1.1610 </r>
       <r>   -21.7620     2.8374     1.4222 </r>
       <r>   -21.6700     1.1185     1.5252 </r>
       <r>   -21.5779     3.8402     1.8787 </r>
       <r>   -21.4859     3.9185     2.2394 </r>
       <r>   -21.3938     1.6511     2.3914 </r>
       <r>   -21.3017     1.3294     2.5138 </r>
       <r>   -21.2097     4.2748     2.9074 </r>
       <r>   -21.1176     4.5906     3.3300 </r>
       <r>   -21.0256     1.5172     3.4696 </r>
       <r>   -20.9335     1.1203     3.5728 </r>
       <r>   -20.8415     2.3790     3.7918 </r>
       <r>   -20.7494     5.5265     4.3006 </r>
       <r>   -20.6573     2.1104     4.4948 </r>
       <r>   -20.5653     4.2981     4.8905 </r>
       <r>   -20.4732     0.5246     4.9388 </r>
       <r>   -20.3812     0.5263     4.9873 </r>
       <r>   -20.2891     5.1719     5.4634 </r>
       <r>   -20.1970     4.6654     5.8929 </r>
       <r>   -20.1050     2.9037     6.1602 </r>
       <r>   -20.0129     1.1392     6.2651 </r>
       <r>   -19.9209     4.0192     6.6351 </r>
       <r>   -19.8288     0.2004     6.6535 </r>
       <r>   -19.7367     1.3149     6.7746 </r>
       <r>   -19.6447     7.6694     7.4806 </r>
       <r>   -19.5526     2.5700     7.7172 </r>
       <r>   -19.4606     4.1452     8.0988 </r>
       <r>   -19.3685     0.2640     8.1231 </r>
       <r>   -19.2764     1.8323     8.2918 </r>
       <r>   -19.1844     3.4095     8.6057 </r>
       <r>   -19.0923     1.0309     8.7006 </r>
       <r>   -19.0003     4.7457     9.1374 </r>
       <r>   -18.9082     5.7806     9.6696 </r>
       <r>   -18.8161     2.0271     9.8562 </r>
       <r>   -18.7241     4.1037    10.2340 </r>
       <r>   -18.6320     1.0038    10.3264 </r>
       <r>   -18.5400     0.0441    10.3305 </r>
       <r>   -18.4479     3.0453    10.6108 </r>
       <r>   -18.3558     3.9636    10.9757 </r>
       <r>   -18.2638     5.6252    11.4936 </r>
       <r>   -18.1717     2.4886    11.7227 </r>
       <r>   -18.0797     4.2305    12.1121 </r>
       <r>   -17.9876     1.9598    12.2925 </r>
       <r>   -17.8955     3.7772    12.6403 </r>
       <r>   -17.8035     1.4653    12.7752 </r>
       <r>   -17.7114     0.0062    12.7757 </r>
       <r>   -17.6194     1.7357    12.9355 </r>
       <r>   -17.5273     8.7304    13.7392 </r>
       <r>   -17.4352     4.9810    14.1978 </r>
       <r>   -17.3432     1.3446    14.3216 </r>
       <r>   -17.2511     4.8957    14.7723 </r>
       <r>   -17.1591     2.3123    14.9851 </r>
       <r>   -17.0670     3.8611    15.3406 </r>
       <r>   -16.9749     3.0805    15.6242 </r>
       <r>   -16.8829     0.9790    15.7143 </r>
       <r>   -16.7908     1.5282    15.8550 </r>
       <r>   -16.6988     8.7750    16.6628 </r>
       <r>   -16.6067     5.4714    17.1665 </r>
       <r>   -16.5146     0.1863    17.1837 </r>
       <r>   -16.4226     0.0000    17.1837 </r>
       <r>   -16.3305     0.0000    17.1837 </r>
       <r>   -16.2385     0.0398    17.1873 </r>
       <r>   -16.1464     1.7356    17.3471 </r>
       <r>   -16.0543     1.1345    17.4516 </r>
       <r>   -15.9623     4.8156    17.8949 </r>
       <r>   -15.8702     2.8463    18.1569 </r>
       <r>   -15.7782     0.5501    18.2075 </r>
       <r>   -15.6861     3.2147    18.5035 </r>
       <r>   -15.5940     5.4096    19.0015 </r>
       <r>   -15.5020     1.5315    19.1425 </r>
       <r>   -15.4099     0.0485    19.1470 </r>
       <r>   -15.3179     1.6382    19.2978 </r>
       <r>   -15.2258    10.0289    20.2210 </r>
       <r>   -15.1337     3.3560    20.5300 </r>
       <r>   -15.0417     0.9777    20.6200 </r>
       <r>   -14.9496     4.9164    21.0726 </r>
       <r>   -14.8576     4.4499    21.4823 </r>
       <r>   -14.7655     1.2675    21.5989 </r>
       <r>   -14.6734     2.8358    21.8600 </r>
       <r>   -14.5814     8.5590    22.6479 </r>
       <r>   -14.4893     0.9418    22.7347 </r>
       <r>   -14.3973     0.0898    22.7429 </r>
       <r>   -14.3052     3.7553    23.0886 </r>
       <r>   -14.2132     4.1414    23.4699 </r>
       <r>   -14.1211     4.5452    23.8883 </r>
       <r>   -14.0290     0.8418    23.9658 </r>
       <r>   -13.9370     3.4091    24.2797 </r>
       <r>   -13.8449     1.8344    24.4485 </r>
       <r>   -13.7529     1.2531    24.5639 </r>
       <r>   -13.6608     4.0100    24.9331 </r>
       <r>   -13.5687     2.3019    25.1450 </r>
       <r>   -13.4767     4.3545    25.5458 </r>
       <r>   -13.3846     1.3962    25.6744 </r>
       <r>   -13.2926     2.4357    25.8986 </r>
       <r>   -13.2005     3.6999    26.2392 </r>
       <r>   -13.1084     0.0620    26.2449 </r>
       <r>   -13.0164     0.7524    26.3142 </r>
       <r>   -12.9243     9.5470    27.1931 </r>
       <r>   -12.8323     4.9791    27.6515 </r>
       <r>   -12.7402     3.2838    27.9538 </r>
       <r>   -12.6481     0.3492    27.9859 </r>
       <r>   -12.5561     2.1440    28.1833 </r>
       <r>   -12.4640     0.2410    28.2055 </r>
       <r>   -12.3720     1.5843    28.3513 </r>
       <r>   -12.2799     7.9831    29.0863 </r>
       <r>   -12.1878     8.6818    29.8855 </r>
       <r>   -12.0958     2.9832    30.1601 </r>
       <r>   -12.0037     0.0420    30.1640 </r>
       <r>   -11.9117     1.8881    30.3378 </r>
       <r>   -11.8196     3.4021    30.6510 </r>
       <r>   -11.7275     3.6761    30.9894 </r>
       <r>   -11.6355     6.4888    31.5868 </r>
       <r>   -11.5434     0.4981    31.6326 </r>
       <r>   -11.4514     0.2238    31.6532 </r>
       <r>   -11.3593     6.4981    32.2515 </r>
       <r>   -11.2672     6.0304    32.8066 </r>
       <r>   -11.1752     3.3757    33.1174 </r>
       <r>   -11.0831     5.6034    33.6332 </r>
       <r>   -10.9911     4.6682    34.0630 </r>
       <r>   -10.8990     2.8309    34.3236 </r>
       <r>   -10.8069     0.0320    34.3265 </r>
       <r>   -10.7149     0.0023    34.3267 </r>
       <r>   -10.6228     1.4321    34.4586 </r>
       <r>   -10.5308    11.0859    35.4792 </r>
       <r>   -10.4387    10.7337    36.4673 </r>
       <r>   -10.3466     2.7546    36.7209 </r>
       <r>   -10.2546     5.9498    37.2686 </r>
       <r>   -10.1625     2.0414    37.4566 </r>
       <r>   -10.0705     4.2460    37.8474 </r>
       <r>    -9.9784     4.9934    38.3071 </r>
       <r>    -9.8863    10.8450    39.3055 </r>
       <r>    -9.7943    10.0305    40.2289 </r>
       <r>    -9.7022     6.1722    40.7971 </r>
       <r>    -9.6102     8.8819    41.6148 </r>
       <r>    -9.5181     8.7511    42.4204 </r>
       <r>    -9.4260     5.5422    42.9306 </r>
       <r>    -9.3340     3.7445    43.2754 </r>
       <r>    -9.2419    10.4730    44.2395 </r>
       <r>    -9.1499    11.8890    45.3340 </r>
       <r>    -9.0578    15.0027    46.7151 </r>
       <r>    -8.9657     6.7043    47.3323 </r>
       <r>    -8.8737     2.9043    47.5997 </r>
       <r>    -8.7816    12.7165    48.7704 </r>
       <r>    -8.6896     6.7394    49.3908 </r>
       <r>    -8.5975     7.3975    50.0718 </r>
       <r>    -8.5054     7.1584    50.7308 </r>
       <r>    -8.4134     8.0067    51.4679 </r>
       <r>    -8.3213     3.3087    51.7725 </r>
       <r>    -8.2293     4.0808    52.1482 </r>
       <r>    -8.1372     5.4710    52.6518 </r>
       <r>    -8.0451    13.9532    53.9364 </r>
       <r>    -7.9531     5.1211    54.4078 </r>
       <r>    -7.8610     5.0054    54.8686 </r>
       <r>    -7.7690     1.1253    54.9722 </r>
       <r>    -7.6769     8.5335    55.7578 </r>
       <r>    -7.5849     6.9351    56.3963 </r>
       <r>    -7.4928     5.1739    56.8726 </r>
       <r>    -7.4007     2.8780    57.1375 </r>
       <r>    -7.3087     7.3990    57.8187 </r>
       <r>    -7.2166     2.2076    58.0219 </r>
       <r>    -7.1246    10.1144    58.9530 </r>
       <r>    -7.0325     7.9174    59.6819 </r>
       <r>    -6.9404     3.3178    59.9873 </r>
       <r>    -6.8484     3.5901    60.3178 </r>
       <r>    -6.7563     0.1324    60.3300 </r>
       <r>    -6.6643     4.3228    60.7280 </r>
       <r>    -6.5722    10.5831    61.7023 </r>
       <r>    -6.4801     8.8251    62.5147 </r>
       <r>    -6.3881     4.1250    62.8945 </r>
       <r>    -6.2960     4.0035    63.2630 </r>
       <r>    -6.2040     1.8000    63.4287 </r>
       <r>    -6.1119     4.9871    63.8878 </r>
       <r>    -6.0198     4.7234    64.3227 </r>
       <r>    -5.9278     2.9073    64.5903 </r>
       <r>    -5.8357     7.9548    65.3226 </r>
       <r>    -5.7437     7.1527    65.9811 </r>
       <r>    -5.6516     3.4139    66.2954 </r>
       <r>    -5.5595     3.7900    66.6443 </r>
       <r>    -5.4675     1.4763    66.7802 </r>
       <r>    -5.3754     3.2038    67.0751 </r>
       <r>    -5.2834     2.0765    67.2663 </r>
       <r>    -5.1913     1.5221    67.4064 </r>
       <r>    -5.0992     3.2281    67.7036 </r>
       <r>    -5.0072    15.7149    69.1503 </r>
       <r>    -4.9151     6.0809    69.7101 </r>
       <r>    -4.8231     0.0454    69.7143 </r>
       <r>    -4.7310     0.1343    69.7267 </r>
       <r>    -4.6389     2.0801    69.9181 </r>
       <r>    -4.5469     0.4486    69.9594 </r>
       <r>    -4.4548     1.4178    70.0900 </r>
       <r>    -4.3628     3.9665    70.4551 </r>
       <r>    -4.2707     5.0763    70.9224 </r>
       <r>    -4.1786     2.8024    71.1804 </r>
       <r>    -4.0866     0.0352    71.1837 </r>
       <r>    -3.9945     0.0095    71.1845 </r>
       <r>    -3.9025     1.2280    71.2976 </r>
       <r>    -3.8104     1.4070    71.4271 </r>
       <r>    -3.7183     0.0158    71.4286 </r>
       <r>    -3.6263     0.0128    71.4298 </r>
       <r>    -3.5342     2.1952    71.6318 </r>
       <r>    -3.4422     3.0675    71.9142 </r>
       <r>    -3.3501     0.0449    71.9184 </r>
       <r>    -3.2580     0.0000    71.9184 </r>
       <r>    -3.1660     0.0000    71.9184 </r>
       <r>    -3.0739     0.0000    71.9184 </r>
       <r>    -2.9819     0.0000    71.9184 </r>
       <r>    -2.8898     0.0001    71.9184 </r>
       <r>    -2.7977     0.2037    71.9371 </r>
       <r>    -2.7057     1.4273    72.0685 </r>
       <r>    -2.6136     0.1424    72.0816 </r>
       <r>    -2.5216     0.0001    72.0816 </r>
       <r>    -2.4295     0.0000    72.0816 </r>
       <r>    -2.3374     0.0000    72.0816 </r>
       <r>    -2.2454     0.0000    72.0816 </r>
       <r>    -2.1533     0.0001    72.0816 </r>
       <r>    -2.0613     0.2910    72.1084 </r>
       <r>    -1.9692     4.1891    72.4941 </r>
       <r>    -1.8771     0.8394    72.5714 </r>
       <r>    -1.7851     0.0472    72.5757 </r>
       <r>    -1.6930     1.7877    72.7403 </r>
       <r>    -1.6010     0.8235    72.8161 </r>
       <r>    -1.5089     0.0026    72.8163 </r>
       <r>    -1.4168     0.0022    72.8165 </r>
       <r>    -1.3248     1.8860    72.9902 </r>
       <r>    -1.2327    11.5127    74.0500 </r>
       <r>    -1.1407     2.7379    74.3021 </r>
       <r>    -1.0486     3.5100    74.6252 </r>
       <r>    -0.9566     5.8760    75.1661 </r>
       <r>    -0.8645     1.7212    75.3246 </r>
       <r>    -0.7724     4.3123    75.7216 </r>
       <r>    -0.6804     3.3346    76.0286 </r>
       <r>    -0.5883     4.7864    76.4692 </r>
       <r>    -0.4963     2.9680    76.7424 </r>
       <r>    -0.4042     3.7630    77.0888 </r>
       <r>    -0.3121     3.3752    77.3996 </r>
       <r>    -0.2201     5.1943    77.8778 </r>
       <r>    -0.1280     0.8820    77.9590 </r>
       <r>    -0.0360     0.0027    77.9592 </r>
       <r>     0.0561     0.5240    78.0074 </r>
       <r>     0.1482     4.2948    78.4028 </r>
       <r>     0.2402     1.4474    78.5361 </r>
       <r>     0.3323     4.1993    78.9227 </r>
       <r>     0.4243     3.6561    79.2592 </r>
       <r>     0.5164     3.0676    79.5416 </r>
       <r>     0.6085     3.6462    79.8773 </r>
       <r>     0.7005     1.3188    79.9987 </r>
       <r>     0.7926     5.8808    80.5401 </r>
       <r>     0.8846     5.8824    81.0816 </r>
       <r>     0.9767     1.4904    81.2188 </r>
       <r>     1.0688     4.2755    81.6124 </r>
       <r>     1.1608     1.8141    81.7795 </r>
       <r>     1.2529     5.7085    82.3050 </r>
       <r>     1.3449     2.0757    82.4961 </r>
       <r>     1.4370     6.8732    83.1288 </r>
       <r>     1.5291    14.1758    84.4338 </r>
       <r>     1.6211     4.4160    84.8404 </r>
       <r>     1.7132     4.6762    85.2709 </r>
       <r>     1.8052     3.3463    85.5789 </r>
       <r>     1.8973     8.8176    86.3907 </r>
       <r>     1.9894     8.8476    87.2052 </r>
       <r>     2.0814     9.2189    88.0539 </r>
       <r>     2.1735     6.9493    88.6936 </r>
       <r>     2.2655     6.9173    89.3304 </r>
       <r>     2.3576     7.3799    90.0098 </r>
       <r>     2.4497     5.8476    90.5481 </r>
       <r>     2.5417     4.0415    90.9202 </r>
       <r>     2.6338     2.3607    91.1375 </r>
       <r>     2.7258     1.9960    91.3213 </r>
       <r>     2.8179     4.6884    91.7529 </r>
       <r>     2.9100     2.5542    91.9880 </r>
       <r>     3.0020     0.1299    92.0000 </r>
       <r>     3.0941     0.0000    92.0000 </r>
       <r>     3.1861     0.0000    92.0000 </r>
       <r>     3.2782     0.0000    92.0000 </r>
       <r>     3.3703     0.0000    92.0000 </r>
       <r>     3.4623     0.0000    92.0000 </r>
       <r>     3.5544     0.0000    92.0000 </r>
       <r>     3.6464     0.0000    92.0000 </r>
       <r>     3.7385     0.0000    92.0000 </r>
       <r>     3.8306     0.0000    92.0000 </r>
       <r>     3.9226     0.0000    92.0000 </r>
       <r>     4.0147     0.0000    92.0000 </r>
       <r>     4.1067     0.0000    92.0000 </r>
      </set>
     </set>
    </array>
   </total>
  </dos>
 </calculation>
 <structure name="finalpos" >
  <crystal>
   <varray name="basis" >
    <v>       7.40170591       0.00000000       0.00000000 </v>
    <v>      -3.70085295       6.41006527       0.00000000 </v>
    <v>       0.00000000       0.00000000      20.00000000 </v>
   </varray>
   <i name="volume">    948.90835877 </i>
   <varray name="rec_basis" >
    <v>       0.13510399       0.07800233       0.00000000 </v>
    <v>       0.00000000       0.15600465       0.00000000 </v>
    <v>       0.00000000       0.00000000       0.05000000 </v>
   </varray>
  </crystal>
  <varray name="positions" >
   <v>       0.00000000       0.00000000       0.50050000 </v>
   <v>       0.33333333       0.00000000       0.50000000 </v>
   <v>       0.66666667       0.00000000       0.50000000 </v>
   <v>       0.00000000       0.33333333       0.50000000 </v>
   <v>       0.33333333       0.33333333       0.50000000 </v>
   <v>       0.66666667       0.33333333       0.50000000 </v>
   <v>       0.00000000       0.66666667       0.50000000 </v>
   <v>       0.33333333       0.66666667       0.50000000 </v>
   <v>       0.66666667       0.66666667       0.50000000 </v>
   <v>       0.22222222       0.11111111       0.50050000 </v>
   <v>       0.55555556       0.11111111       0.50000000 </v>
   <v>       0.88888889       0.11111111       0.50000000 </v>
   <v>       0.22222222       0.44444444       0.50000000 </v>
   <v>       0.55555556       0.44444444       0.50000000 </v>
   <v>       0.88888889       0.44444444       0.50000000 </v>
   <v>       0.22222222       0.77777778       0.50000000 </v>
   <v>       0.55555556       0.77777778       0.50000000 </v>
   <v>       0.88888889       0.77777778       0.50000000 </v>
  </varray>
 </structure>
</modeling>
