<?xml version="1.0" encoding="ISO-8859-1"?>
<modeling>
 <generator>
  <i name="program" type="string">vasp </i>
  <i name="version" type="string">6.4.1  </i>
  <i name="subversion" type="string">05Apr23 (build Feb 12 2025 00:37:39) complex                          parallel </i>
  <i name="platform" type="string">LinuxIFC </i>
  <i name="date" type="string">2025 02 14 </i>
  <i name="time" type="string">05:04:35 </i>
 </generator>
 <incar>
  <i type="string" name="SYSTEM">SCF</i>
  <i type="int" name="ISTART">     0</i>
  <i type="int" name="ICHARG">     2</i>
  <i type="int" name="NELM">    60</i>
  <i type="int" name="NELMIN">     6</i>
  <i name="EDIFF">      0.00000100</i>
  <i name="EDIFFG">     -0.00000100</i>
  <i name="ENCUT">    600.00000000</i>
  <i type="string" name="LREAL">Auto</i>
  <i type="int" name="ISMEAR">     0</i>
  <i name="SIGMA">      0.05000000</i>
  <i type="logical" name="LWAVE"> F  </i>
  <i type="logical" name="LCHARG"> F  </i>
 </incar>
 <primitive_cell>
  <structure name="primitive_cell" >
   <crystal>
    <varray name="basis" >
     <v>       7.40170591       0.00000000       0.00000000 </v>
     <v>      -3.70085295       6.41006527       0.00000000 </v>
     <v>       0.00000000       0.00000000      20.00000000 </v>
    </varray>
    <i name="volume">    948.90835877 </i>
    <varray name="rec_basis" >
     <v>       0.13510399       0.07800233       0.00000000 </v>
     <v>       0.00000000       0.15600465       0.00000000 </v>
     <v>       0.00000000       0.00000000       0.05000000 </v>
    </varray>
   </crystal>
   <varray name="positions" >
    <v>       0.00000000       0.00000000       0.50100000 </v>
    <v>       0.33333333       0.00000000       0.50000000 </v>
    <v>       0.66666667       0.00000000       0.50000000 </v>
    <v>       1.00000000       0.33333333       0.50000000 </v>
    <v>       0.33333333       0.33333333       0.50000000 </v>
    <v>       0.66666667       0.33333333       0.50000000 </v>
    <v>       1.00000000       0.66666667       0.50000000 </v>
    <v>       0.33333333       0.66666667       0.50000000 </v>
    <v>       0.66666667       0.66666667       0.50000000 </v>
    <v>       0.22222222       0.11111111       0.50000000 </v>
    <v>       0.55555556       0.11111111       0.50000000 </v>
    <v>       0.88888889       0.11111111       0.50000000 </v>
    <v>       0.22222222       0.44444444       0.50000000 </v>
    <v>       0.55555556       0.44444444       0.50000000 </v>
    <v>       0.88888889       0.44444444       0.50000000 </v>
    <v>       0.22222222       0.77777778       0.50000000 </v>
    <v>       0.55555556       0.77777778       0.50000000 </v>
    <v>       0.88888889       0.77777778       0.50000000 </v>
   </varray>
  </structure>
  <varray name="primitive_index" >
   <v type="int" >        1 </v>
   <v type="int" >        2 </v>
   <v type="int" >        3 </v>
   <v type="int" >        4 </v>
   <v type="int" >        5 </v>
   <v type="int" >        6 </v>
   <v type="int" >        7 </v>
   <v type="int" >        8 </v>
   <v type="int" >        9 </v>
   <v type="int" >       10 </v>
   <v type="int" >       11 </v>
   <v type="int" >       12 </v>
   <v type="int" >       13 </v>
   <v type="int" >       14 </v>
   <v type="int" >       15 </v>
   <v type="int" >       16 </v>
   <v type="int" >       17 </v>
   <v type="int" >       18 </v>
  </varray>
 </primitive_cell>
 <kpoints>
  <generation param="Gamma">
   <v type="int" name="divisions">       7        7        1 </v>
   <v name="usershift">      0.00000000       0.00000000       0.00000000 </v>
   <v name="genvec1">      0.14285714       0.00000000       0.00000000 </v>
   <v name="genvec2">      0.00000000       0.14285714       0.00000000 </v>
   <v name="genvec3">      0.00000000       0.00000000       1.00000000 </v>
   <v name="shift">      0.00000000       0.00000000       0.00000000 </v>
  </generation>
  <varray name="kpointlist" >
   <v>       0.00000000       0.00000000       0.00000000 </v>
   <v>       0.14285714       0.00000000       0.00000000 </v>
   <v>       0.28571429       0.00000000       0.00000000 </v>
   <v>       0.42857143       0.00000000       0.00000000 </v>
   <v>       0.14285714       0.14285714       0.00000000 </v>
   <v>       0.28571429       0.14285714       0.00000000 </v>
   <v>       0.42857143       0.14285714       0.00000000 </v>
   <v>       0.28571429       0.28571429       0.00000000 </v>
  </varray>
  <varray name="weights" >
   <v>       0.02040816 </v>
   <v>       0.12244898 </v>
   <v>       0.12244898 </v>
   <v>       0.12244898 </v>
   <v>       0.12244898 </v>
   <v>       0.24489796 </v>
   <v>       0.12244898 </v>
   <v>       0.12244898 </v>
  </varray>
 </kpoints>
 <parameters>
  <separator name="general" >
   <i type="string" name="SYSTEM">SCF</i>
   <i type="logical" name="LCOMPAT"> F  </i>
  </separator>
  <separator name="electronic" >
   <i type="string" name="PREC">normal</i>
   <i name="ENMAX">    600.00000000</i>
   <i name="ENAUG">    644.87300000</i>
   <i name="EDIFF">      0.00000100</i>
   <i type="int" name="IALGO">    38</i>
   <i type="int" name="IWAVPR">    10</i>
   <i type="int" name="NBANDS">    46</i>
   <i type="int" name="NBANDSLOW">    -1</i>
   <i type="int" name="NBANDSHIGH">    -1</i>
   <i name="NELECT">     72.00000000</i>
   <i type="int" name="TURBO">     0</i>
   <i type="int" name="IRESTART">     0</i>
   <i type="int" name="NREBOOT">     0</i>
   <i type="int" name="NMIN">     0</i>
   <i name="EREF">      0.00000000</i>
   <separator name="electronic smearing" >
    <i type="int" name="ISMEAR">     0</i>
    <i name="SIGMA">      0.05000000</i>
    <i name="KSPACING">      0.50000000</i>
    <i type="logical" name="KGAMMA"> T  </i>
    <i type="logical" name="KBLOWUP"> T  </i>
   </separator>
   <separator name="electronic projectors" >
    <i type="logical" name="LREAL"> T  </i>
    <v name="ROPT">     -0.00050000</v>
    <i type="int" name="LMAXPAW">  -100</i>
    <i type="int" name="LMAXMIX">     2</i>
    <i type="logical" name="NLSPLINE"> F  </i>
   </separator>
   <separator name="electronic startup" >
    <i type="int" name="ISTART">     0</i>
    <i type="int" name="ICHARG">     2</i>
    <i type="int" name="INIWAV">     1</i>
   </separator>
   <separator name="electronic spin" >
    <i type="int" name="ISPIN">     1</i>
    <i type="logical" name="LNONCOLLINEAR"> F  </i>
    <v name="MAGMOM">      1.00000000      1.00000000      1.00000000      1.00000000      1.00000000      1.00000000      1.00000000      1.00000000      1.00000000      1.00000000      1.00000000      1.00000000      1.00000000      1.00000000      1.00000000      1.00000000      1.00000000      1.00000000</v>
    <i name="NUPDOWN">     -1.00000000</i>
    <i type="logical" name="LSORBIT"> F  </i>
    <v name="SAXIS">      0.00000000      0.00000000      1.00000000</v>
    <i type="logical" name="LSPIRAL"> F  </i>
    <v name="QSPIRAL">      0.00000000      0.00000000      0.00000000</v>
    <i type="logical" name="LZEROZ"> F  </i>
   </separator>
   <separator name="electronic exchange-correlation" >
    <i type="logical" name="LASPH"> F  </i>
    <i type="logical" name="LMETAGGA"> F  </i>
   </separator>
   <separator name="electronic convergence" >
    <i type="int" name="NELM">    60</i>
    <i type="int" name="NELMDL">    -5</i>
    <i type="int" name="NELMIN">     6</i>
    <i name="ENINI">    600.00000000</i>
    <separator name="electronic convergence detail" >
     <i type="logical" name="LDIAG"> T  </i>
     <i type="logical" name="LSUBROT"> F  </i>
     <i name="WEIMIN">      0.00000000</i>
     <i name="EBREAK">      0.00000000</i>
     <i name="DEPER">      0.30000000</i>
     <i type="int" name="NRMM">     4</i>
     <i name="TIME">      0.40000000</i>
    </separator>
   </separator>
   <separator name="electronic mixer" >
    <i name="AMIX">      0.40000000</i>
    <i name="BMIX">      1.00000000</i>
    <i name="AMIN">      0.10000000</i>
    <i name="AMIX_MAG">      1.60000000</i>
    <i name="BMIX_MAG">      1.00000000</i>
    <separator name="electronic mixer details" >
     <i type="int" name="IMIX">     4</i>
     <i type="logical" name="MIXFIRST"> F  </i>
     <i type="int" name="MAXMIX">   -45</i>
     <i name="WC">    100.00000000</i>
     <i type="int" name="INIMIX">     1</i>
     <i type="int" name="MIXPRE">     1</i>
     <i type="int" name="MREMOVE">     5</i>
    </separator>
   </separator>
   <separator name="electronic dipolcorrection" >
    <i type="logical" name="LDIPOL"> F  </i>
    <i type="logical" name="LMONO"> F  </i>
    <i type="int" name="IDIPOL">     0</i>
    <i name="EPSILON">      1.00000000</i>
    <v name="DIPOL">   -100.00000000   -100.00000000   -100.00000000</v>
    <i name="EFIELD">      0.00000000</i>
   </separator>
  </separator>
  <separator name="grids" >
   <i type="int" name="NGX">    48</i>
   <i type="int" name="NGY">    48</i>
   <i type="int" name="NGZ">   120</i>
   <i type="int" name="NGXF">    96</i>
   <i type="int" name="NGYF">    96</i>
   <i type="int" name="NGZF">   240</i>
   <i type="logical" name="ADDGRID"> F  </i>
  </separator>
  <separator name="ionic" >
   <i type="int" name="NSW">     0</i>
   <i type="int" name="IBRION">    -1</i>
   <i type="int" name="MDALGO">     0</i>
   <i type="int" name="ISIF">     2</i>
   <i name="PSTRESS">      0.00000000</i>
   <i name="EDIFFG">     -0.00000100</i>
   <i type="int" name="NFREE">     0</i>
   <i name="POTIM">      0.50000000</i>
   <i name="SMASS">     -3.00000000</i>
   <i name="SCALEE">      1.00000000</i>
  </separator>
  <separator name="ionic md" >
   <i name="TEBEG">      0.00010000</i>
   <i name="TEEND">      0.00010000</i>
   <i type="int" name="NBLOCK">     1</i>
   <i type="int" name="KBLOCK">     1</i>
   <i type="int" name="NPACO">   256</i>
   <i name="APACO">     10.00000000</i>
  </separator>
  <separator name="symmetry" >
   <i type="int" name="ISYM">     2</i>
   <i name="SYMPREC">      0.00001000</i>
  </separator>
  <separator name="dos" >
   <i type="int" name="LORBIT">     0</i>
   <v name="RWIGS">     -1.00000000</v>
   <i type="int" name="NEDOS">   301</i>
   <i name="EMIN">     10.00000000</i>
   <i name="EMAX">    -10.00000000</i>
   <i name="EFERMI">      0.00000000</i>
  </separator>
  <separator name="writing" >
   <i type="int" name="NWRITE">     2</i>
   <i type="logical" name="LWAVE"> F  </i>
   <i type="logical" name="LDOWNSAMPLE"> F  </i>
   <i type="logical" name="LCHARG"> F  </i>
   <i type="logical" name="LPARD"> F  </i>
   <i type="logical" name="LVTOT"> F  </i>
   <i type="logical" name="LVHAR"> F  </i>
   <i type="logical" name="LELF"> F  </i>
   <i type="logical" name="LOPTICS"> F  </i>
   <v name="STM">      0.00000000      0.00000000      0.00000000      0.00000000      0.00000000      0.00000000      0.00000000</v>
  </separator>
  <separator name="performance" >
   <i type="int" name="NPAR">     2</i>
   <i type="int" name="NSIM">     4</i>
   <i type="int" name="NBLK">    -1</i>
   <i type="logical" name="LPLANE"> T  </i>
   <i type="logical" name="LSCALAPACK"> T  </i>
   <i type="logical" name="LSCAAWARE"> F  </i>
   <i type="logical" name="LSCALU"> F  </i>
   <i type="logical" name="LASYNC"> F  </i>
   <i type="logical" name="LORBITALREAL"> F  </i>
  </separator>
  <separator name="miscellaneous" >
   <i type="int" name="IDIOT">     3</i>
   <i type="int" name="PHON_NSTRUCT">    -1</i>
   <i type="logical" name="LMUSIC"> F  </i>
   <v name="POMASS">     12.01100000</v>
   <v name="DARWINR">      0.00000000</v>
   <v name="DARWINV">      1.00000000</v>
   <i type="logical" name="LCORR"> T  </i>
  </separator>
  <i type="logical" name="GGA_COMPAT"> T  </i>
  <i type="logical" name="LBERRY"> F  </i>
  <i type="int" name="ICORELEVEL">     0</i>
  <i type="logical" name="LDAU"> F  </i>
  <i type="int" name="I_CONSTRAINED_M">     0</i>
  <separator name="electronic exchange-correlation" >
   <i type="string" name="GGA">--</i>
   <i type="int" name="VOSKOWN">     0</i>
   <i type="logical" name="LHFCALC"> F  </i>
   <i type="string" name="PRECFOCK"></i>
   <i type="logical" name="LSYMGRAD"> F  </i>
   <i type="logical" name="LHFONE"> F  </i>
   <i type="logical" name="LRHFCALC"> F  </i>
   <i type="logical" name="LTHOMAS"> F  </i>
   <i type="logical" name="LMODELHF"> F  </i>
   <i type="logical" name="LFOCKACE"> F  </i>
   <i name="ENCUT4O">     -1.00000000</i>
   <i type="int" name="EXXOEP">     0</i>
   <i type="int" name="FOURORBIT">     0</i>
   <i name="AEXX">      0.00000000</i>
   <i name="HFALPHA">      0.00000000</i>
   <i name="MCALPHA">      0.00000000</i>
   <i name="ALDAX">      1.00000000</i>
   <i name="AGGAX">      1.00000000</i>
   <i name="ALDAC">      1.00000000</i>
   <i name="AGGAC">      1.00000000</i>
   <i type="int" name="NKREDX">     1</i>
   <i type="int" name="NKREDY">     1</i>
   <i type="int" name="NKREDZ">     1</i>
   <i type="logical" name="SHIFTRED"> F  </i>
   <i type="logical" name="ODDONLY"> F  </i>
   <i type="logical" name="EVENONLY"> F  </i>
   <i type="int" name="LMAXFOCK">     0</i>
   <i type="int" name="NMAXFOCKAE">     0</i>
   <i type="logical" name="LFOCKAEDFT"> F  </i>
   <i name="HFSCREEN">      0.00000000</i>
   <i name="HFSCREENC">      0.00000000</i>
   <i type="int" name="NBANDSGWLOW">     0</i>
  </separator>
  <separator name="vdW DFT" >
   <i type="logical" name="LUSE_VDW"> F  </i>
   <i type="int" name="IVDW_NL">     1</i>
   <i type="logical" name="LSPIN_VDW"> F  </i>
   <i name="Zab_VDW">     -0.84910000</i>
   <i name="PARAM1">      0.12340000</i>
   <i name="PARAM2">      1.00000000</i>
   <i name="PARAM3">      0.00000000</i>
  </separator>
  <separator name="model GW" >
   <i type="int" name="MODEL_GW">     0</i>
   <i name="MODEL_EPS0">     31.63027863</i>
   <i name="MODEL_ALPHA">      1.00000000</i>
  </separator>
  <separator name="linear response parameters" >
   <i type="logical" name="LEPSILON"> F  </i>
   <i type="logical" name="LRPA"> F  </i>
   <i type="logical" name="LNABLA"> F  </i>
   <i type="logical" name="LVEL"> F  </i>
   <i name="CSHIFT">      0.10000000</i>
   <i name="OMEGAMAX">     -1.00000000</i>
   <i name="DEG_THRESHOLD">      0.00200000</i>
   <i name="RTIME">     -0.10000000</i>
   <i name="WPLASMAI">      0.00000000</i>
   <v name="DFIELD">      0.00000000      0.00000000      0.00000000</v>
   <v name="WPLASMA">      0.00000000      0.00000000      0.00000000      0.00000000      0.00000000      0.00000000      0.00000000      0.00000000      0.00000000</v>
  </separator>
  <separator name="orbital magnetization" >
   <i type="logical" name="NUCIND"> F  </i>
   <v name="MAGPOS">      0.00000000      0.00000000      0.00000000</v>
   <i type="logical" name="LNICSALL"> T  </i>
   <i type="logical" name="ORBITALMAG"> F  </i>
   <i type="logical" name="LMAGBLOCH"> F  </i>
   <i type="logical" name="LCHIMAG"> F  </i>
   <i type="logical" name="LGAUGE"> T  </i>
   <i type="int" name="MAGATOM">     0</i>
   <v name="MAGDIPOL">      0.00000000      0.00000000      0.00000000</v>
   <v name="AVECCONST">      0.00000000      0.00000000      0.00000000</v>
  </separator>
  <separator name="response functions" >
   <i type="logical" name="LALL_IN_ONE"> F  </i>
   <i type="int" name="IALL_IN_ONE">    -1</i>
   <i type="int" name="NBANDS_WAVE">    -1</i>
   <i type="logical" name="LFINITE_TEMPERATURE"> F  </i>
   <i type="logical" name="LADDER"> F  </i>
   <i type="logical" name="LRPAFORCE"> F  </i>
   <i type="logical" name="LFXC"> F  </i>
   <i type="logical" name="LHARTREE"> T  </i>
   <i type="int" name="IBSE">     0</i>
   <v type="int" name="KPOINT">    -1     0     0     0</v>
   <i type="logical" name="LTCTC"> F  </i>
   <i type="logical" name="LTCTE"> F  </i>
   <i type="logical" name="LTETE"> F  </i>
   <i type="logical" name="LTRIPLET"> F  </i>
   <i type="logical" name="LFXCEPS"> F  </i>
   <i type="logical" name="LFXHEG"> F  </i>
   <i type="int" name="NATURALO">     2</i>
   <i type="logical" name="LHOLEGF"> F  </i>
   <i type="logical" name="L2ORDER"> F  </i>
   <i type="logical" name="LDMP1"> F  </i>
   <i type="logical" name="LMP2LT"> F  </i>
   <i type="logical" name="LSMP2LT"> F  </i>
   <i type="logical" name="LGWLF"> F  </i>
   <i name="ENCUTGW">     -1.60000002</i>
   <i name="ENCUTGWSOFT">     -1.60000002</i>
   <i name="ENCUTLF">     -1.00000000</i>
   <i type="logical" name="LESF_SPLINES"> F  </i>
   <i type="int" name="LMAXMP2">    -1</i>
   <i name="SCISSOR">      0.00000000</i>
   <i type="int" name="NOMEGA">     0</i>
   <i type="int" name="NOMEGAR">     0</i>
   <i type="int" name="NBANDSGW">    -1</i>
   <i type="int" name="NBANDSO">    -1</i>
   <i type="int" name="NBANDSV">    -1</i>
   <i type="int" name="NELMGW">     1</i>
   <i type="int" name="NELMHF">     1</i>
   <i type="int" name="DIM">     3</i>
   <i type="int" name="IESPILON">     4</i>
   <i type="int" name="ANTIRES">     0</i>
   <i name="OMEGAMAX">    -30.00000000</i>
   <i name="OMEGAMIN">    -30.00000000</i>
   <i name="OMEGATL">   -200.00000000</i>
   <i type="int" name="OMEGAGRID">     0</i>
   <i name="CSHIFT">     -0.10000000</i>
   <i type="logical" name="LSELFENERGY"> F  </i>
   <i type="logical" name="LSPECTRAL"> F  </i>
   <i type="logical" name="LSPECTRALGW"> F  </i>
   <i type="logical" name="LSINGLES"> F  </i>
   <i type="logical" name="LFERMIGW"> F  </i>
   <i type="logical" name="ODDONLYGW"> F  </i>
   <i type="logical" name="EVENONLYGW"> F  </i>
   <i type="int" name="NKREDLFX">     1</i>
   <i type="int" name="NKREDLFY">     1</i>
   <i type="int" name="NKREDLFZ">     1</i>
   <i type="int" name="MAXMEM">  2800</i>
   <i type="int" name="TELESCOPE">     0</i>
   <i type="int" name="NTAUPAR">    -1</i>
   <i type="int" name="NOMEGAPAR">    -1</i>
   <i name="DAMP_NEWTON">      0.80000001</i>
   <i name="LAMBDA">      1.00000000</i>
  </separator>
  <separator name="External order field" >
   <i name="OFIELD_KAPPA">      0.00000000</i>
   <v name="OFIELD_K">      0.00000000      0.00000000      0.00000000</v>
   <i name="OFIELD_Q6_NEAR">      0.00000000</i>
   <i name="OFIELD_Q6_FAR">      0.00000000</i>
   <i name="OFIELD_A">      0.00000000</i>
  </separator>
  <separator name="optional k-points parameters" >
   <i type="int" name="KPOINTS_OPT_MODE">     1</i>
   <i type="logical" name="LKPOINTS_OPT"> F  </i>
  </separator>
 </parameters>
 <atominfo>
  <atoms>      18 </atoms>
  <types>       1 </types>
  <array name="atoms" >
   <dimension dim="1">ion</dimension>
   <field type="string">element</field>
   <field type="int">atomtype</field>
   <set>
    <rc><c>C </c><c>   1</c></rc>
    <rc><c>C </c><c>   1</c></rc>
    <rc><c>C </c><c>   1</c></rc>
    <rc><c>C </c><c>   1</c></rc>
    <rc><c>C </c><c>   1</c></rc>
    <rc><c>C </c><c>   1</c></rc>
    <rc><c>C </c><c>   1</c></rc>
    <rc><c>C </c><c>   1</c></rc>
    <rc><c>C </c><c>   1</c></rc>
    <rc><c>C </c><c>   1</c></rc>
    <rc><c>C </c><c>   1</c></rc>
    <rc><c>C </c><c>   1</c></rc>
    <rc><c>C </c><c>   1</c></rc>
    <rc><c>C </c><c>   1</c></rc>
    <rc><c>C </c><c>   1</c></rc>
    <rc><c>C </c><c>   1</c></rc>
    <rc><c>C </c><c>   1</c></rc>
    <rc><c>C </c><c>   1</c></rc>
   </set>
  </array>
  <array name="atomtypes" >
   <dimension dim="1">type</dimension>
   <field type="int">atomspertype</field>
   <field type="string">element</field>
   <field>mass</field>
   <field>valence</field>
   <field type="string">pseudopotential</field>
   <set>
    <rc><c>  18</c><c>C </c><c>     12.01100000</c><c>      4.00000000</c><c>  PAW_PBE C 08Apr2002                   </c></rc>
   </set>
  </array>
 </atominfo>
 <structure name="initialpos" >
  <crystal>
   <varray name="basis" >
    <v>       7.40170591       0.00000000       0.00000000 </v>
    <v>      -3.70085295       6.41006527       0.00000000 </v>
    <v>       0.00000000       0.00000000      20.00000000 </v>
   </varray>
   <i name="volume">    948.90835877 </i>
   <varray name="rec_basis" >
    <v>       0.13510399       0.07800233       0.00000000 </v>
    <v>       0.00000000       0.15600465       0.00000000 </v>
    <v>       0.00000000       0.00000000       0.05000000 </v>
   </varray>
  </crystal>
  <varray name="positions" >
   <v>       0.00000000       0.00000000       0.50100000 </v>
   <v>       0.33333333       0.00000000       0.50000000 </v>
   <v>       0.66666667       0.00000000       0.50000000 </v>
   <v>       0.00000000       0.33333333       0.50000000 </v>
   <v>       0.33333333       0.33333333       0.50000000 </v>
   <v>       0.66666667       0.33333333       0.50000000 </v>
   <v>       0.00000000       0.66666667       0.50000000 </v>
   <v>       0.33333333       0.66666667       0.50000000 </v>
   <v>       0.66666667       0.66666667       0.50000000 </v>
   <v>       0.22222222       0.11111111       0.50000000 </v>
   <v>       0.55555556       0.11111111       0.50000000 </v>
   <v>       0.88888889       0.11111111       0.50000000 </v>
   <v>       0.22222222       0.44444444       0.50000000 </v>
   <v>       0.55555556       0.44444444       0.50000000 </v>
   <v>       0.88888889       0.44444444       0.50000000 </v>
   <v>       0.22222222       0.77777778       0.50000000 </v>
   <v>       0.55555556       0.77777778       0.50000000 </v>
   <v>       0.88888889       0.77777778       0.50000000 </v>
  </varray>
 </structure>
 <calculation>
  <scstep>
   <time name="dav">    1.90    1.97</time>
   <time name="total">    1.99    2.06</time>
   <energy>
    <i name="alphaZ">     28.04858418 </i>
    <i name="ewald">  11638.75770895 </i>
    <i name="hartreedc"> -13553.09650572 </i>
    <i name="XCdc">    237.17636791 </i>
    <i name="pawpsdc">   1953.39683484 </i>
    <i name="pawaedc">  -1963.64613940 </i>
    <i name="eentropy">     -0.00803747 </i>
    <i name="bandstr">   -242.76068141 </i>
    <i name="atom">   2648.70517965 </i>
    <i name="e_fr_energy">    746.57331153 </i>
    <i name="e_wo_entrp">    746.58134900 </i>
    <i name="e_0_energy">    746.57733027 </i>
   </energy>
  </scstep>
  <scstep>
   <time name="dav">    2.54    2.63</time>
   <time name="total">    2.54    2.63</time>
   <energy>
    <i name="e_fr_energy">    -20.22655242 </i>
    <i name="e_wo_entrp">    -20.22655090 </i>
    <i name="e_0_energy">    -20.22655166 </i>
   </energy>
  </scstep>
  <scstep>
   <time name="dav">    2.01    2.08</time>
   <time name="total">    2.01    2.08</time>
   <energy>
    <i name="e_fr_energy">   -172.09956186 </i>
    <i name="e_wo_entrp">   -172.09827042 </i>
    <i name="e_0_energy">   -172.09891614 </i>
   </energy>
  </scstep>
  <scstep>
   <time name="dav">    2.04    2.11</time>
   <time name="total">    2.04    2.11</time>
   <energy>
    <i name="e_fr_energy">   -177.34163345 </i>
    <i name="e_wo_entrp">   -177.33933931 </i>
    <i name="e_0_energy">   -177.34048638 </i>
   </energy>
  </scstep>
  <scstep>
   <time name="dav">    2.30    2.39</time>
   <time name="total">    2.40    2.49</time>
   <energy>
    <i name="e_fr_energy">   -177.48405184 </i>
    <i name="e_wo_entrp">   -177.48174904 </i>
    <i name="e_0_energy">   -177.48290044 </i>
   </energy>
  </scstep>
  <scstep>
   <time name="dav">    1.92    1.99</time>
   <time name="total">    2.10    2.18</time>
   <energy>
    <i name="e_fr_energy">   -169.31943219 </i>
    <i name="e_wo_entrp">   -169.31712944 </i>
    <i name="e_0_energy">   -169.31828081 </i>
   </energy>
  </scstep>
  <scstep>
   <time name="dav">    1.90    1.98</time>
   <time name="total">    2.08    2.16</time>
   <energy>
    <i name="e_fr_energy">   -166.15017610 </i>
    <i name="e_wo_entrp">   -166.14787336 </i>
    <i name="e_0_energy">   -166.14902473 </i>
   </energy>
  </scstep>
  <scstep>
   <time name="dav">    1.97    2.05</time>
   <time name="total">    2.15    2.23</time>
   <energy>
    <i name="e_fr_energy">   -166.08824997 </i>
    <i name="e_wo_entrp">   -166.08594716 </i>
    <i name="e_0_energy">   -166.08709856 </i>
   </energy>
  </scstep>
  <scstep>
   <time name="dav">    2.08    2.16</time>
   <time name="total">    2.26    2.35</time>
   <energy>
    <i name="e_fr_energy">   -166.07548648 </i>
    <i name="e_wo_entrp">   -166.07318372 </i>
    <i name="e_0_energy">   -166.07433510 </i>
   </energy>
  </scstep>
  <scstep>
   <time name="dav">    1.85    0.74</time>
   <time name="total">    2.04    0.93</time>
   <energy>
    <i name="e_fr_energy">   -166.05715240 </i>
    <i name="e_wo_entrp">   -166.05484968 </i>
    <i name="e_0_energy">   -166.05600104 </i>
   </energy>
  </scstep>
  <scstep>
   <time name="dav">    1.86    1.93</time>
   <time name="total">    2.04    2.11</time>
   <energy>
    <i name="e_fr_energy">   -166.06099740 </i>
    <i name="e_wo_entrp">   -166.05869461 </i>
    <i name="e_0_energy">   -166.05984600 </i>
   </energy>
  </scstep>
  <scstep>
   <time name="dav">    1.82    1.88</time>
   <time name="total">    2.00    2.07</time>
   <energy>
    <i name="e_fr_energy">   -166.06606147 </i>
    <i name="e_wo_entrp">   -166.06375869 </i>
    <i name="e_0_energy">   -166.06491008 </i>
   </energy>
  </scstep>
  <scstep>
   <time name="dav">    1.98    2.05</time>
   <time name="total">    2.18    2.26</time>
   <energy>
    <i name="e_fr_energy">   -166.06996990 </i>
    <i name="e_wo_entrp">   -166.06766715 </i>
    <i name="e_0_energy">   -166.06881852 </i>
   </energy>
  </scstep>
  <scstep>
   <time name="dav">    1.82    1.88</time>
   <time name="total">    1.99    2.07</time>
   <energy>
    <i name="e_fr_energy">   -166.07396464 </i>
    <i name="e_wo_entrp">   -166.07166188 </i>
    <i name="e_0_energy">   -166.07281326 </i>
   </energy>
  </scstep>
  <scstep>
   <time name="dav">    2.01    2.09</time>
   <time name="total">    2.19    2.27</time>
   <energy>
    <i name="e_fr_energy">   -166.07467271 </i>
    <i name="e_wo_entrp">   -166.07236994 </i>
    <i name="e_0_energy">   -166.07352133 </i>
   </energy>
  </scstep>
  <scstep>
   <time name="dav">    1.83    1.91</time>
   <time name="total">    2.01    2.09</time>
   <energy>
    <i name="e_fr_energy">   -166.07491580 </i>
    <i name="e_wo_entrp">   -166.07261303 </i>
    <i name="e_0_energy">   -166.07376441 </i>
   </energy>
  </scstep>
  <scstep>
   <time name="dav">    1.65    1.72</time>
   <time name="total">    1.84    1.91</time>
   <energy>
    <i name="e_fr_energy">   -166.07497712 </i>
    <i name="e_wo_entrp">   -166.07267435 </i>
    <i name="e_0_energy">   -166.07382573 </i>
   </energy>
  </scstep>
  <scstep>
   <time name="dav">    1.66    1.72</time>
   <time name="total">    1.83    1.91</time>
   <energy>
    <i name="e_fr_energy">   -166.07502940 </i>
    <i name="e_wo_entrp">   -166.07272663 </i>
    <i name="e_0_energy">   -166.07387801 </i>
   </energy>
  </scstep>
  <scstep>
   <time name="dav">    1.44    1.50</time>
   <time name="total">    1.62    1.69</time>
   <energy>
    <i name="e_fr_energy">   -166.07505025 </i>
    <i name="e_wo_entrp">   -166.07274748 </i>
    <i name="e_0_energy">   -166.07389887 </i>
   </energy>
  </scstep>
  <scstep>
   <time name="dav">    1.48    1.54</time>
   <time name="total">    1.67    1.74</time>
   <energy>
    <i name="e_fr_energy">   -166.07506795 </i>
    <i name="e_wo_entrp">   -166.07276518 </i>
    <i name="e_0_energy">   -166.07391657 </i>
   </energy>
  </scstep>
  <scstep>
   <time name="dav">    1.33    1.38</time>
   <time name="total">    1.51    1.57</time>
   <energy>
    <i name="e_fr_energy">   -166.07507094 </i>
    <i name="e_wo_entrp">   -166.07276818 </i>
    <i name="e_0_energy">   -166.07391956 </i>
   </energy>
  </scstep>
  <scstep>
   <time name="dav">    1.35    1.40</time>
   <time name="total">    1.43    1.49</time>
   <energy>
    <i name="alphaZ">     28.04858418 </i>
    <i name="ewald">  11638.75770895 </i>
    <i name="hartreedc"> -13861.41827514 </i>
    <i name="XCdc">    247.81232190 </i>
    <i name="pawpsdc">   7452.36704479 </i>
    <i name="pawaedc">  -7464.63020124 </i>
    <i name="eentropy">     -0.00230277 </i>
    <i name="bandstr">   -855.71513206 </i>
    <i name="atom">   2648.70517965 </i>
    <i name="e_fr_energy">   -166.07507173 </i>
    <i name="e_wo_entrp">   -166.07276896 </i>
    <i name="e_0_energy">   -166.07392034 </i>
   </energy>
  </scstep>
  <structure>
   <crystal>
    <varray name="basis" >
     <v>       7.40170591       0.00000000       0.00000000 </v>
     <v>      -3.70085295       6.41006527       0.00000000 </v>
     <v>       0.00000000       0.00000000      20.00000000 </v>
    </varray>
    <i name="volume">    948.90835877 </i>
    <varray name="rec_basis" >
     <v>       0.13510399       0.07800233       0.00000000 </v>
     <v>       0.00000000       0.15600465       0.00000000 </v>
     <v>       0.00000000       0.00000000       0.05000000 </v>
    </varray>
   </crystal>
   <varray name="positions" >
    <v>       0.00000000       0.00000000       0.50100000 </v>
    <v>       0.33333333       0.00000000       0.50000000 </v>
    <v>       0.66666667       0.00000000       0.50000000 </v>
    <v>       0.00000000       0.33333333       0.50000000 </v>
    <v>       0.33333333       0.33333333       0.50000000 </v>
    <v>       0.66666667       0.33333333       0.50000000 </v>
    <v>       0.00000000       0.66666667       0.50000000 </v>
    <v>       0.33333333       0.66666667       0.50000000 </v>
    <v>       0.66666667       0.66666667       0.50000000 </v>
    <v>       0.22222222       0.11111111       0.50000000 </v>
    <v>       0.55555556       0.11111111       0.50000000 </v>
    <v>       0.88888889       0.11111111       0.50000000 </v>
    <v>       0.22222222       0.44444444       0.50000000 </v>
    <v>       0.55555556       0.44444444       0.50000000 </v>
    <v>       0.88888889       0.44444444       0.50000000 </v>
    <v>       0.22222222       0.77777778       0.50000000 </v>
    <v>       0.55555556       0.77777778       0.50000000 </v>
    <v>       0.88888889       0.77777778       0.50000000 </v>
   </varray>
  </structure>
  <varray name="forces" >
   <v>      -0.00000000       0.00000000      -0.28583029 </v>
   <v>       0.00004731       0.00012951      -0.00969640 </v>
   <v>      -0.00004731       0.00012951      -0.00969640 </v>
   <v>      -0.00013581      -0.00002378      -0.00969640 </v>
   <v>       0.00013581      -0.00002378      -0.00969640 </v>
   <v>      -0.00000000       0.00000000       0.00424211 </v>
   <v>      -0.00008850      -0.00010572      -0.00969640 </v>
   <v>      -0.00000000       0.00000000       0.00424041 </v>
   <v>       0.00008850      -0.00010572      -0.00969640 </v>
   <v>      -0.00226049      -0.00130510       0.12336572 </v>
   <v>      -0.00000000       0.00005528      -0.01823143 </v>
   <v>       0.00226049      -0.00130510       0.12336572 </v>
   <v>       0.00000000       0.00007007       0.00670778 </v>
   <v>       0.00004788      -0.00002764      -0.01823143 </v>
   <v>      -0.00004788      -0.00002764      -0.01823143 </v>
   <v>       0.00006068      -0.00003504       0.00670778 </v>
   <v>      -0.00006068      -0.00003504       0.00670778 </v>
   <v>       0.00000000       0.00261019       0.12336572 </v>
  </varray>
  <varray name="stress" >
   <v>      -0.17754809      -0.00000000       0.00000000 </v>
   <v>      -0.00000000      -0.17754808       0.00000000 </v>
   <v>      -0.00000000       0.00000000      -0.58740892 </v>
  </varray>
  <energy>
   <i name="e_fr_energy">   -166.07507173 </i>
   <i name="e_wo_entrp">   -166.07276896 </i>
   <i name="e_0_energy">   -166.07392034 </i>
  </energy>
  <time name="totalsc">   45.71   46.28</time>
  <eigenvalues>
   <array>
    <dimension dim="1">band</dimension>
    <dimension dim="2">kpoint</dimension>
    <dimension dim="3">spin</dimension>
    <field>eigene</field>
    <field>occ</field>
    <set>
     <set comment="spin 1">
      <set comment="kpoint 1">
       <r>  -22.2558    1.0000 </r>
       <r>  -19.6734    1.0000 </r>
       <r>  -19.6734    1.0000 </r>
       <r>  -19.6734    1.0000 </r>
       <r>  -19.6732    1.0000 </r>
       <r>  -19.6732    1.0000 </r>
       <r>  -19.6727    1.0000 </r>
       <r>  -15.3407    1.0000 </r>
       <r>  -15.3406    1.0000 </r>
       <r>  -15.3406    1.0000 </r>
       <r>  -15.3405    1.0000 </r>
       <r>  -13.2894    1.0000 </r>
       <r>  -13.2894    1.0000 </r>
       <r>  -12.3747    1.0000 </r>
       <r>  -12.3747    1.0000 </r>
       <r>  -12.3747    1.0000 </r>
       <r>  -12.3747    1.0000 </r>
       <r>  -12.3742    1.0000 </r>
       <r>  -12.3742    1.0000 </r>
       <r>  -10.3597    1.0000 </r>
       <r>   -8.5236    1.0000 </r>
       <r>   -8.5236    1.0000 </r>
       <r>   -8.5236    1.0000 </r>
       <r>   -8.5236    1.0000 </r>
       <r>   -8.5234    1.0000 </r>
       <r>   -8.5234    1.0000 </r>
       <r>   -7.3709    1.0000 </r>
       <r>   -7.3709    1.0000 </r>
       <r>   -7.3709    1.0000 </r>
       <r>   -7.3704    1.0000 </r>
       <r>   -7.3704    1.0000 </r>
       <r>   -7.3704    1.0000 </r>
       <r>   -5.7843    1.0000 </r>
       <r>   -5.7843    1.0000 </r>
       <r>   -2.7558    0.5044 </r>
       <r>   -2.7553    0.4990 </r>
       <r>   -2.7552    0.4983 </r>
       <r>   -2.7552    0.4983 </r>
       <r>    0.5192    0.0000 </r>
       <r>    1.3118    0.0000 </r>
       <r>    1.6342    0.0000 </r>
       <r>    2.1410    0.0000 </r>
       <r>    2.1438    0.0000 </r>
       <r>    2.1440    0.0000 </r>
       <r>    2.1442    0.0000 </r>
       <r>    2.1442    0.0000 </r>
      </set>
      <set comment="kpoint 2">
       <r>  -22.2022    1.0000 </r>
       <r>  -20.3488    1.0000 </r>
       <r>  -19.9841    1.0000 </r>
       <r>  -19.9840    1.0000 </r>
       <r>  -19.2624    1.0000 </r>
       <r>  -19.2622    1.0000 </r>
       <r>  -18.9060    1.0000 </r>
       <r>  -15.9952    1.0000 </r>
       <r>  -15.9950    1.0000 </r>
       <r>  -14.9131    1.0000 </r>
       <r>  -14.9131    1.0000 </r>
       <r>  -13.5974    1.0000 </r>
       <r>  -12.9701    1.0000 </r>
       <r>  -12.9700    1.0000 </r>
       <r>  -12.9561    1.0000 </r>
       <r>  -12.9561    1.0000 </r>
       <r>  -11.7351    1.0000 </r>
       <r>  -11.7349    1.0000 </r>
       <r>  -11.1176    1.0000 </r>
       <r>  -10.2957    1.0000 </r>
       <r>   -8.8634    1.0000 </r>
       <r>   -8.8633    1.0000 </r>
       <r>   -8.8291    1.0000 </r>
       <r>   -8.5097    1.0000 </r>
       <r>   -8.5096    1.0000 </r>
       <r>   -8.1320    1.0000 </r>
       <r>   -8.1265    1.0000 </r>
       <r>   -7.7132    1.0000 </r>
       <r>   -7.7130    1.0000 </r>
       <r>   -6.9227    1.0000 </r>
       <r>   -6.9226    1.0000 </r>
       <r>   -6.5570    1.0000 </r>
       <r>   -6.0044    1.0000 </r>
       <r>   -5.9000    1.0000 </r>
       <r>   -3.5267    1.0000 </r>
       <r>   -3.5266    1.0000 </r>
       <r>   -2.0050    0.0000 </r>
       <r>   -2.0046    0.0000 </r>
       <r>    0.5915    0.0000 </r>
       <r>    0.8747    0.0000 </r>
       <r>    1.3854    0.0000 </r>
       <r>    1.4728    0.0000 </r>
       <r>    1.4736    0.0000 </r>
       <r>    1.7088    0.0000 </r>
       <r>    2.6301    0.0000 </r>
       <r>    2.7589    0.0000 </r>
      </set>
      <set comment="kpoint 3">
       <r>  -22.0416    1.0000 </r>
       <r>  -20.9264    1.0000 </r>
       <r>  -20.1926    1.0000 </r>
       <r>  -20.1924    1.0000 </r>
       <r>  -18.7553    1.0000 </r>
       <r>  -18.7551    1.0000 </r>
       <r>  -18.0628    1.0000 </r>
       <r>  -16.7451    1.0000 </r>
       <r>  -16.7449    1.0000 </r>
       <r>  -14.7529    1.0000 </r>
       <r>  -14.6243    1.0000 </r>
       <r>  -14.6242    1.0000 </r>
       <r>  -13.4993    1.0000 </r>
       <r>  -13.4992    1.0000 </r>
       <r>  -12.1837    1.0000 </r>
       <r>  -12.1835    1.0000 </r>
       <r>  -11.0980    1.0000 </r>
       <r>  -11.0978    1.0000 </r>
       <r>  -10.1046    1.0000 </r>
       <r>   -9.8598    1.0000 </r>
       <r>   -9.4951    1.0000 </r>
       <r>   -9.4950    1.0000 </r>
       <r>   -9.0380    1.0000 </r>
       <r>   -8.7945    1.0000 </r>
       <r>   -8.7612    1.0000 </r>
       <r>   -8.7579    1.0000 </r>
       <r>   -7.9450    1.0000 </r>
       <r>   -7.9445    1.0000 </r>
       <r>   -7.6708    1.0000 </r>
       <r>   -6.6227    1.0000 </r>
       <r>   -6.3782    1.0000 </r>
       <r>   -6.3771    1.0000 </r>
       <r>   -6.2160    1.0000 </r>
       <r>   -5.7647    1.0000 </r>
       <r>   -4.2990    1.0000 </r>
       <r>   -4.2989    1.0000 </r>
       <r>   -1.2833    0.0000 </r>
       <r>   -1.2828    0.0000 </r>
       <r>   -0.2384    0.0000 </r>
       <r>    0.7804    0.0000 </r>
       <r>    0.7877    0.0000 </r>
       <r>    0.8166    0.0000 </r>
       <r>    1.6061    0.0000 </r>
       <r>    1.9322    0.0000 </r>
       <r>    2.3339    0.0000 </r>
       <r>    2.8514    0.0000 </r>
      </set>
      <set comment="kpoint 4">
       <r>  -21.7748    1.0000 </r>
       <r>  -21.4025    1.0000 </r>
       <r>  -20.2972    1.0000 </r>
       <r>  -20.2970    1.0000 </r>
       <r>  -18.1581    1.0000 </r>
       <r>  -18.1579    1.0000 </r>
       <r>  -17.4813    1.0000 </r>
       <r>  -17.4811    1.0000 </r>
       <r>  -17.2288    1.0000 </r>
       <r>  -15.7455    1.0000 </r>
       <r>  -14.3221    1.0000 </r>
       <r>  -14.3219    1.0000 </r>
       <r>  -13.9510    1.0000 </r>
       <r>  -13.9508    1.0000 </r>
       <r>  -11.2585    1.0000 </r>
       <r>  -11.2583    1.0000 </r>
       <r>  -10.5973    1.0000 </r>
       <r>  -10.5970    1.0000 </r>
       <r>  -10.3278    1.0000 </r>
       <r>  -10.3276    1.0000 </r>
       <r>   -9.7875    1.0000 </r>
       <r>   -9.3484    1.0000 </r>
       <r>   -9.1438    1.0000 </r>
       <r>   -9.0903    1.0000 </r>
       <r>   -9.0898    1.0000 </r>
       <r>   -8.6461    1.0000 </r>
       <r>   -8.0612    1.0000 </r>
       <r>   -8.0609    1.0000 </r>
       <r>   -7.5383    1.0000 </r>
       <r>   -7.1686    1.0000 </r>
       <r>   -6.6644    1.0000 </r>
       <r>   -5.7468    1.0000 </r>
       <r>   -5.7468    1.0000 </r>
       <r>   -5.1980    1.0000 </r>
       <r>   -5.0472    1.0000 </r>
       <r>   -5.0471    1.0000 </r>
       <r>   -0.9704    0.0000 </r>
       <r>   -0.5855    0.0000 </r>
       <r>   -0.5848    0.0000 </r>
       <r>    0.1009    0.0000 </r>
       <r>    0.1018    0.0000 </r>
       <r>    1.1735    0.0000 </r>
       <r>    1.6816    0.0000 </r>
       <r>    1.9735    0.0000 </r>
       <r>    2.3046    0.0000 </r>
       <r>    2.4865    0.0000 </r>
      </set>
      <set comment="kpoint 5">
       <r>  -22.0951    1.0000 </r>
       <r>  -20.6109    1.0000 </r>
       <r>  -20.6107    1.0000 </r>
       <r>  -19.5193    1.0000 </r>
       <r>  -19.5192    1.0000 </r>
       <r>  -18.4549    1.0000 </r>
       <r>  -18.4546    1.0000 </r>
       <r>  -16.7786    1.0000 </r>
       <r>  -16.1616    1.0000 </r>
       <r>  -15.2402    1.0000 </r>
       <r>  -14.2549    1.0000 </r>
       <r>  -14.1585    1.0000 </r>
       <r>  -14.1584    1.0000 </r>
       <r>  -12.6044    1.0000 </r>
       <r>  -12.3071    1.0000 </r>
       <r>  -12.3068    1.0000 </r>
       <r>  -12.2710    1.0000 </r>
       <r>  -10.4864    1.0000 </r>
       <r>  -10.4863    1.0000 </r>
       <r>  -10.1679    1.0000 </r>
       <r>   -9.1766    1.0000 </r>
       <r>   -9.1763    1.0000 </r>
       <r>   -9.1236    1.0000 </r>
       <r>   -9.1235    1.0000 </r>
       <r>   -8.4261    1.0000 </r>
       <r>   -8.4257    1.0000 </r>
       <r>   -8.0745    1.0000 </r>
       <r>   -8.0745    1.0000 </r>
       <r>   -7.1907    1.0000 </r>
       <r>   -7.1906    1.0000 </r>
       <r>   -6.4088    1.0000 </r>
       <r>   -6.1330    1.0000 </r>
       <r>   -6.1037    1.0000 </r>
       <r>   -6.1029    1.0000 </r>
       <r>   -4.2578    1.0000 </r>
       <r>   -3.8994    1.0000 </r>
       <r>   -1.7107    0.0000 </r>
       <r>   -1.2654    0.0000 </r>
       <r>    0.2718    0.0000 </r>
       <r>    0.2730    0.0000 </r>
       <r>    0.7377    0.0000 </r>
       <r>    1.5326    0.0000 </r>
       <r>    1.8576    0.0000 </r>
       <r>    2.0103    0.0000 </r>
       <r>    2.0116    0.0000 </r>
       <r>    2.7776    0.0000 </r>
      </set>
      <set comment="kpoint 6">
       <r>  -21.8814    1.0000 </r>
       <r>  -21.1377    1.0000 </r>
       <r>  -20.7686    1.0000 </r>
       <r>  -19.6742    1.0000 </r>
       <r>  -18.9579    1.0000 </r>
       <r>  -17.9165    1.0000 </r>
       <r>  -17.5934    1.0000 </r>
       <r>  -17.5728    1.0000 </r>
       <r>  -16.6710    1.0000 </r>
       <r>  -15.2536    1.0000 </r>
       <r>  -15.2499    1.0000 </r>
       <r>  -14.6348    1.0000 </r>
       <r>  -13.7272    1.0000 </r>
       <r>  -12.8210    1.0000 </r>
       <r>  -11.8985    1.0000 </r>
       <r>  -11.6825    1.0000 </r>
       <r>  -11.3887    1.0000 </r>
       <r>  -10.0393    1.0000 </r>
       <r>   -9.9217    1.0000 </r>
       <r>   -9.9088    1.0000 </r>
       <r>   -9.7107    1.0000 </r>
       <r>   -9.6301    1.0000 </r>
       <r>   -9.2824    1.0000 </r>
       <r>   -9.2644    1.0000 </r>
       <r>   -9.0373    1.0000 </r>
       <r>   -8.6066    1.0000 </r>
       <r>   -8.2587    1.0000 </r>
       <r>   -7.5791    1.0000 </r>
       <r>   -7.3538    1.0000 </r>
       <r>   -7.1428    1.0000 </r>
       <r>   -6.5707    1.0000 </r>
       <r>   -6.5434    1.0000 </r>
       <r>   -5.5813    1.0000 </r>
       <r>   -5.3854    1.0000 </r>
       <r>   -5.0741    1.0000 </r>
       <r>   -4.4328    1.0000 </r>
       <r>   -1.2968    0.0000 </r>
       <r>   -0.6855    0.0000 </r>
       <r>   -0.4253    0.0000 </r>
       <r>   -0.2988    0.0000 </r>
       <r>    1.0277    0.0000 </r>
       <r>    1.2241    0.0000 </r>
       <r>    1.8267    0.0000 </r>
       <r>    2.0444    0.0000 </r>
       <r>    2.1556    0.0000 </r>
       <r>    2.4019    0.0000 </r>
      </set>
      <set comment="kpoint 7">
       <r>  -21.5620    1.0000 </r>
       <r>  -21.5617    1.0000 </r>
       <r>  -20.8213    1.0000 </r>
       <r>  -19.7261    1.0000 </r>
       <r>  -18.3059    1.0000 </r>
       <r>  -18.3058    1.0000 </r>
       <r>  -17.3075    1.0000 </r>
       <r>  -17.3073    1.0000 </r>
       <r>  -16.9869    1.0000 </r>
       <r>  -15.9389    1.0000 </r>
       <r>  -15.0097    1.0000 </r>
       <r>  -15.0094    1.0000 </r>
       <r>  -13.2819    1.0000 </r>
       <r>  -13.2817    1.0000 </r>
       <r>  -11.3579    1.0000 </r>
       <r>  -10.9878    1.0000 </r>
       <r>  -10.9875    1.0000 </r>
       <r>  -10.4999    1.0000 </r>
       <r>  -10.4997    1.0000 </r>
       <r>   -9.9053    1.0000 </r>
       <r>   -9.6355    1.0000 </r>
       <r>   -9.5358    1.0000 </r>
       <r>   -9.5350    1.0000 </r>
       <r>   -9.3359    1.0000 </r>
       <r>   -8.6671    1.0000 </r>
       <r>   -8.4184    1.0000 </r>
       <r>   -8.1249    1.0000 </r>
       <r>   -8.1246    1.0000 </r>
       <r>   -7.4093    1.0000 </r>
       <r>   -7.0535    1.0000 </r>
       <r>   -7.0528    1.0000 </r>
       <r>   -5.8556    1.0000 </r>
       <r>   -5.8554    1.0000 </r>
       <r>   -5.0628    1.0000 </r>
       <r>   -5.0124    1.0000 </r>
       <r>   -5.0123    1.0000 </r>
       <r>   -1.0895    0.0000 </r>
       <r>   -0.8238    0.0000 </r>
       <r>   -0.8232    0.0000 </r>
       <r>    0.4095    0.0000 </r>
       <r>    0.4105    0.0000 </r>
       <r>    1.4641    0.0000 </r>
       <r>    1.4642    0.0000 </r>
       <r>    2.2670    0.0000 </r>
       <r>    2.2670    0.0000 </r>
       <r>    2.6025    0.0000 </r>
      </set>
      <set comment="kpoint 8">
       <r>  -21.6151    1.0000 </r>
       <r>  -21.2437    1.0000 </r>
       <r>  -21.2434    1.0000 </r>
       <r>  -19.0600    1.0000 </r>
       <r>  -19.0598    1.0000 </r>
       <r>  -18.3555    1.0000 </r>
       <r>  -17.0888    1.0000 </r>
       <r>  -17.0886    1.0000 </r>
       <r>  -16.7114    1.0000 </r>
       <r>  -15.6764    1.0000 </r>
       <r>  -15.6142    1.0000 </r>
       <r>  -15.6141    1.0000 </r>
       <r>  -12.9179    1.0000 </r>
       <r>  -12.2633    1.0000 </r>
       <r>  -12.2630    1.0000 </r>
       <r>  -11.3539    1.0000 </r>
       <r>  -10.5571    1.0000 </r>
       <r>  -10.5494    1.0000 </r>
       <r>  -10.5490    1.0000 </r>
       <r>   -9.8195    1.0000 </r>
       <r>   -9.8193    1.0000 </r>
       <r>   -9.5985    1.0000 </r>
       <r>   -9.1611    1.0000 </r>
       <r>   -9.1607    1.0000 </r>
       <r>   -8.8219    1.0000 </r>
       <r>   -8.8216    1.0000 </r>
       <r>   -7.8827    1.0000 </r>
       <r>   -7.6861    1.0000 </r>
       <r>   -7.6860    1.0000 </r>
       <r>   -7.0827    1.0000 </r>
       <r>   -6.6646    1.0000 </r>
       <r>   -6.6640    1.0000 </r>
       <r>   -5.8933    1.0000 </r>
       <r>   -5.0051    1.0000 </r>
       <r>   -5.0050    1.0000 </r>
       <r>   -4.6730    1.0000 </r>
       <r>   -1.2280    0.0000 </r>
       <r>   -1.0252    0.0000 </r>
       <r>   -1.0247    0.0000 </r>
       <r>    0.5276    0.0000 </r>
       <r>    1.3894    0.0000 </r>
       <r>    1.4822    0.0000 </r>
       <r>    1.4827    0.0000 </r>
       <r>    1.9000    0.0000 </r>
       <r>    1.9010    0.0000 </r>
       <r>    2.1938    0.0000 </r>
      </set>
     </set>
    </set>
   </array>
  </eigenvalues>
  <separator name="orbital magnetization" >
   <v name="MAGDIPOLOUT">      0.00000000      0.00000000      0.00000000</v>
  </separator>
  <dos>
   <i name="efermi">     -2.75536313 </i>
   <total>
    <array>
     <dimension dim="1">gridpoints</dimension>
     <dimension dim="2">spin</dimension>
     <field>energy</field>
     <field>total</field>
     <field>integrated</field>
     <set>
      <set comment="spin 1">
       <r>   -23.5111     0.0000     0.0000 </r>
       <r>   -23.4190     0.0000     0.0000 </r>
       <r>   -23.3270     0.0000     0.0000 </r>
       <r>   -23.2349     0.0000     0.0000 </r>
       <r>   -23.1429     0.0000     0.0000 </r>
       <r>   -23.0508     0.0000     0.0000 </r>
       <r>   -22.9588     0.0000     0.0000 </r>
       <r>   -22.8667     0.0000     0.0000 </r>
       <r>   -22.7746     0.0000     0.0000 </r>
       <r>   -22.6826     0.0000     0.0000 </r>
       <r>   -22.5905     0.0000     0.0000 </r>
       <r>   -22.4985     0.0000     0.0000 </r>
       <r>   -22.4064     0.0000     0.0000 </r>
       <r>   -22.3143     0.0236     0.0022 </r>
       <r>   -22.2223     1.1016     0.1036 </r>
       <r>   -22.1302     2.3657     0.3214 </r>
       <r>   -22.0382     3.5650     0.6496 </r>
       <r>   -21.9461     1.5381     0.7912 </r>
       <r>   -21.8540     4.0171     1.1610 </r>
       <r>   -21.7620     2.8374     1.4222 </r>
       <r>   -21.6699     1.1186     1.5252 </r>
       <r>   -21.5779     3.8400     1.8787 </r>
       <r>   -21.4858     3.9188     2.2394 </r>
       <r>   -21.3937     1.6510     2.3914 </r>
       <r>   -21.3017     1.3295     2.5138 </r>
       <r>   -21.2096     4.2746     2.9073 </r>
       <r>   -21.1176     4.5905     3.3299 </r>
       <r>   -21.0255     1.5176     3.4696 </r>
       <r>   -20.9334     1.1200     3.5727 </r>
       <r>   -20.8414     2.3790     3.7918 </r>
       <r>   -20.7493     5.5263     4.3005 </r>
       <r>   -20.6573     2.1107     4.4948 </r>
       <r>   -20.5652     4.2980     4.8905 </r>
       <r>   -20.4731     0.5249     4.9388 </r>
       <r>   -20.3811     0.5260     4.9872 </r>
       <r>   -20.2890     5.1713     5.4633 </r>
       <r>   -20.1970     4.6655     5.8928 </r>
       <r>   -20.1049     2.9046     6.1602 </r>
       <r>   -20.0128     1.1386     6.2650 </r>
       <r>   -19.9208     4.0196     6.6351 </r>
       <r>   -19.8287     0.2005     6.6535 </r>
       <r>   -19.7367     1.3140     6.7745 </r>
       <r>   -19.6446     7.6690     7.4805 </r>
       <r>   -19.5525     2.5705     7.7171 </r>
       <r>   -19.4605     4.1456     8.0988 </r>
       <r>   -19.3684     0.2643     8.1231 </r>
       <r>   -19.2764     1.8312     8.2917 </r>
       <r>   -19.1843     3.4105     8.6057 </r>
       <r>   -19.0923     1.0301     8.7005 </r>
       <r>   -19.0002     4.7456     9.1374 </r>
       <r>   -18.9081     5.7804     9.6695 </r>
       <r>   -18.8161     2.0279     9.8562 </r>
       <r>   -18.7240     4.1031    10.2339 </r>
       <r>   -18.6320     1.0048    10.3264 </r>
       <r>   -18.5399     0.0441    10.3305 </r>
       <r>   -18.4478     3.0439    10.6107 </r>
       <r>   -18.3558     3.9637    10.9756 </r>
       <r>   -18.2637     5.6258    11.4935 </r>
       <r>   -18.1717     2.4880    11.7225 </r>
       <r>   -18.0796     4.2312    12.1120 </r>
       <r>   -17.9875     1.9604    12.2925 </r>
       <r>   -17.8955     3.7761    12.6401 </r>
       <r>   -17.8034     1.4667    12.7752 </r>
       <r>   -17.7114     0.0062    12.7757 </r>
       <r>   -17.6193     1.7337    12.9353 </r>
       <r>   -17.5272     8.7306    13.7391 </r>
       <r>   -17.4352     4.9821    14.1977 </r>
       <r>   -17.3431     1.3443    14.3215 </r>
       <r>   -17.2511     4.8957    14.7722 </r>
       <r>   -17.1590     2.3130    14.9851 </r>
       <r>   -17.0669     3.8602    15.3405 </r>
       <r>   -16.9749     3.0812    15.6241 </r>
       <r>   -16.8828     0.9795    15.7143 </r>
       <r>   -16.7908     1.5264    15.8548 </r>
       <r>   -16.6987     8.7742    16.6626 </r>
       <r>   -16.6066     5.4738    17.1665 </r>
       <r>   -16.5146     0.1867    17.1837 </r>
       <r>   -16.4225     0.0000    17.1837 </r>
       <r>   -16.3305     0.0000    17.1837 </r>
       <r>   -16.2384     0.0397    17.1873 </r>
       <r>   -16.1463     1.7350    17.3471 </r>
       <r>   -16.0543     1.1347    17.4515 </r>
       <r>   -15.9622     4.8130    17.8946 </r>
       <r>   -15.8702     2.8490    18.1569 </r>
       <r>   -15.7781     0.5491    18.2074 </r>
       <r>   -15.6861     3.2130    18.5032 </r>
       <r>   -15.5940     5.4091    19.0012 </r>
       <r>   -15.5019     1.5351    19.1425 </r>
       <r>   -15.4099     0.0485    19.1469 </r>
       <r>   -15.3178     1.6362    19.2976 </r>
       <r>   -15.2258    10.0234    20.2203 </r>
       <r>   -15.1337     3.3637    20.5300 </r>
       <r>   -15.0416     0.9752    20.6198 </r>
       <r>   -14.9496     4.9165    21.0724 </r>
       <r>   -14.8575     4.4516    21.4822 </r>
       <r>   -14.7655     1.2665    21.5988 </r>
       <r>   -14.6734     2.8341    21.8597 </r>
       <r>   -14.5813     8.5597    22.6477 </r>
       <r>   -14.4893     0.9447    22.7347 </r>
       <r>   -14.3972     0.0894    22.7429 </r>
       <r>   -14.3052     3.7519    23.0883 </r>
       <r>   -14.2131     4.1433    23.4697 </r>
       <r>   -14.1210     4.5449    23.8881 </r>
       <r>   -14.0290     0.8437    23.9658 </r>
       <r>   -13.9369     3.4059    24.2793 </r>
       <r>   -13.8449     1.8380    24.4485 </r>
       <r>   -13.7528     1.2506    24.5637 </r>
       <r>   -13.6607     4.0116    24.9330 </r>
       <r>   -13.5687     2.3008    25.1448 </r>
       <r>   -13.4766     4.3533    25.5455 </r>
       <r>   -13.3846     1.3994    25.6744 </r>
       <r>   -13.2925     2.4309    25.8982 </r>
       <r>   -13.2004     3.7044    26.2392 </r>
       <r>   -13.1084     0.0624    26.2449 </r>
       <r>   -13.0163     0.7489    26.3139 </r>
       <r>   -12.9243     9.5420    27.1923 </r>
       <r>   -12.8322     4.9838    27.6511 </r>
       <r>   -12.7401     3.2874    27.9537 </r>
       <r>   -12.6481     0.3478    27.9858 </r>
       <r>   -12.5560     2.1442    28.1832 </r>
       <r>   -12.4640     0.2424    28.2055 </r>
       <r>   -12.3719     1.5816    28.3511 </r>
       <r>   -12.2798     7.9762    29.0854 </r>
       <r>   -12.1878     8.6842    29.8848 </r>
       <r>   -12.0957     2.9903    30.1601 </r>
       <r>   -12.0037     0.0422    30.1640 </r>
       <r>   -11.9116     1.8817    30.3372 </r>
       <r>   -11.8196     3.4078    30.6509 </r>
       <r>   -11.7275     3.6715    30.9889 </r>
       <r>   -11.6354     6.4927    31.5866 </r>
       <r>   -11.5434     0.4997    31.6326 </r>
       <r>   -11.4513     0.2223    31.6531 </r>
       <r>   -11.3593     6.4898    32.2506 </r>
       <r>   -11.2672     6.0337    32.8060 </r>
       <r>   -11.1751     3.3810    33.1173 </r>
       <r>   -11.0831     5.6003    33.6328 </r>
       <r>   -10.9910     4.6661    34.0624 </r>
       <r>   -10.8990     2.8369    34.3236 </r>
       <r>   -10.8069     0.0322    34.3265 </r>
       <r>   -10.7148     0.0023    34.3267 </r>
       <r>   -10.6228     1.4290    34.4583 </r>
       <r>   -10.5307    11.0774    35.4781 </r>
       <r>   -10.4387    10.7440    36.4672 </r>
       <r>   -10.3466     2.7500    36.7203 </r>
       <r>   -10.2545     5.9535    37.2684 </r>
       <r>   -10.1625     2.0381    37.4560 </r>
       <r>   -10.0704     4.2496    37.8473 </r>
       <r>    -9.9784     5.0103    38.3085 </r>
       <r>    -9.8863    10.7946    39.3023 </r>
       <r>    -9.7942    10.0596    40.2283 </r>
       <r>    -9.7022     6.1749    40.7968 </r>
       <r>    -9.6101     8.8880    41.6150 </r>
       <r>    -9.5181     8.7330    42.4190 </r>
       <r>    -9.4260     5.5577    42.9306 </r>
       <r>    -9.3339     3.7447    43.2753 </r>
       <r>    -9.2419    10.4658    44.2388 </r>
       <r>    -9.1498    11.8877    45.3332 </r>
       <r>    -9.0578    14.9959    46.7137 </r>
       <r>    -8.9657     6.7189    47.3322 </r>
       <r>    -8.8736     2.9023    47.5994 </r>
       <r>    -8.7816    12.7148    48.7700 </r>
       <r>    -8.6895     6.7332    49.3898 </r>
       <r>    -8.5975     7.4053    50.0715 </r>
       <r>    -8.5054     7.1630    50.7310 </r>
       <r>    -8.4133     8.0030    51.4677 </r>
       <r>    -8.3213     3.3093    51.7724 </r>
       <r>    -8.2292     4.0771    52.1477 </r>
       <r>    -8.1372     5.4630    52.6506 </r>
       <r>    -8.0451    13.9602    53.9358 </r>
       <r>    -7.9531     5.1349    54.4085 </r>
       <r>    -7.8610     4.9954    54.8684 </r>
       <r>    -7.7689     1.1244    54.9719 </r>
       <r>    -7.6769     8.5139    55.7557 </r>
       <r>    -7.5848     6.9623    56.3966 </r>
       <r>    -7.4928     5.1693    56.8725 </r>
       <r>    -7.4007     2.8799    57.1376 </r>
       <r>    -7.3086     7.3917    57.8181 </r>
       <r>    -7.2166     2.2084    58.0214 </r>
       <r>    -7.1245    10.1123    58.9523 </r>
       <r>    -7.0325     7.9132    59.6808 </r>
       <r>    -6.9404     3.3293    59.9873 </r>
       <r>    -6.8483     3.5903    60.3178 </r>
       <r>    -6.7563     0.1318    60.3300 </r>
       <r>    -6.6642     4.3105    60.7268 </r>
       <r>    -6.5722    10.6208    61.7045 </r>
       <r>    -6.4801     8.7788    62.5127 </r>
       <r>    -6.3880     4.1598    62.8957 </r>
       <r>    -6.2960     3.9893    63.2629 </r>
       <r>    -6.2039     1.7822    63.4270 </r>
       <r>    -6.1119     4.9842    63.8858 </r>
       <r>    -6.0198     4.7337    64.3216 </r>
       <r>    -5.9277     2.9096    64.5895 </r>
       <r>    -5.8357     7.9562    65.3219 </r>
       <r>    -5.7436     7.1528    65.9804 </r>
       <r>    -5.6516     3.4209    66.2953 </r>
       <r>    -5.5595     3.7881    66.6441 </r>
       <r>    -5.4674     1.4786    66.7802 </r>
       <r>    -5.3754     3.2027    67.0750 </r>
       <r>    -5.2833     2.0777    67.2663 </r>
       <r>    -5.1913     1.5220    67.4064 </r>
       <r>    -5.0992     3.2264    67.7034 </r>
       <r>    -5.0071    15.7153    69.1502 </r>
       <r>    -4.9151     6.0823    69.7101 </r>
       <r>    -4.8230     0.0454    69.7143 </r>
       <r>    -4.7310     0.1344    69.7267 </r>
       <r>    -4.6389     2.0802    69.9182 </r>
       <r>    -4.5469     0.4484    69.9594 </r>
       <r>    -4.4548     1.4185    70.0900 </r>
       <r>    -4.3627     3.9661    70.4551 </r>
       <r>    -4.2707     5.0768    70.9225 </r>
       <r>    -4.1786     2.8017    71.1804 </r>
       <r>    -4.0866     0.0352    71.1837 </r>
       <r>    -3.9945     0.0095    71.1845 </r>
       <r>    -3.9024     1.2289    71.2977 </r>
       <r>    -3.8104     1.4061    71.4271 </r>
       <r>    -3.7183     0.0157    71.4286 </r>
       <r>    -3.6263     0.0129    71.4298 </r>
       <r>    -3.5342     2.1980    71.6321 </r>
       <r>    -3.4421     3.0648    71.9142 </r>
       <r>    -3.3501     0.0448    71.9184 </r>
       <r>    -3.2580     0.0000    71.9184 </r>
       <r>    -3.1660     0.0000    71.9184 </r>
       <r>    -3.0739     0.0000    71.9184 </r>
       <r>    -2.9818     0.0000    71.9184 </r>
       <r>    -2.8898     0.0001    71.9184 </r>
       <r>    -2.7977     0.2046    71.9372 </r>
       <r>    -2.7057     1.4270    72.0686 </r>
       <r>    -2.6136     0.1416    72.0816 </r>
       <r>    -2.5215     0.0001    72.0816 </r>
       <r>    -2.4295     0.0000    72.0816 </r>
       <r>    -2.3374     0.0000    72.0816 </r>
       <r>    -2.2454     0.0000    72.0816 </r>
       <r>    -2.1533     0.0001    72.0816 </r>
       <r>    -2.0612     0.2936    72.1087 </r>
       <r>    -1.9692     4.1921    72.4946 </r>
       <r>    -1.8771     0.8339    72.5714 </r>
       <r>    -1.7851     0.0478    72.5758 </r>
       <r>    -1.6930     1.7920    72.7407 </r>
       <r>    -1.6009     0.8186    72.8161 </r>
       <r>    -1.5089     0.0025    72.8163 </r>
       <r>    -1.4168     0.0023    72.8165 </r>
       <r>    -1.3248     1.9046    72.9919 </r>
       <r>    -1.2327    11.5135    74.0518 </r>
       <r>    -1.1406     2.7219    74.3024 </r>
       <r>    -1.0486     3.5251    74.6269 </r>
       <r>    -0.9565     5.8684    75.1671 </r>
       <r>    -0.8645     1.7193    75.3254 </r>
       <r>    -0.7724     4.3104    75.7222 </r>
       <r>    -0.6804     3.3471    76.0303 </r>
       <r>    -0.5883     4.7854    76.4709 </r>
       <r>    -0.4962     2.9529    76.7427 </r>
       <r>    -0.4042     3.7758    77.0903 </r>
       <r>    -0.3121     3.3803    77.4015 </r>
       <r>    -0.2201     5.1850    77.8788 </r>
       <r>    -0.1280     0.8703    77.9590 </r>
       <r>    -0.0359     0.0027    77.9592 </r>
       <r>     0.0561     0.5348    78.0084 </r>
       <r>     0.1482     4.2942    78.4038 </r>
       <r>     0.2402     1.4575    78.5379 </r>
       <r>     0.3323     4.1887    78.9236 </r>
       <r>     0.4244     3.6719    79.2616 </r>
       <r>     0.5164     3.0599    79.5433 </r>
       <r>     0.6085     3.6464    79.8790 </r>
       <r>     0.7005     1.3103    79.9996 </r>
       <r>     0.7926     5.9173    80.5443 </r>
       <r>     0.8847     5.8246    81.0805 </r>
       <r>     0.9767     1.5128    81.2198 </r>
       <r>     1.0688     4.2802    81.6138 </r>
       <r>     1.1608     1.8002    81.7796 </r>
       <r>     1.2529     5.7121    82.3054 </r>
       <r>     1.3450     2.0976    82.4985 </r>
       <r>     1.4370     6.8857    83.1324 </r>
       <r>     1.5291    14.1453    84.4346 </r>
       <r>     1.6211     4.4152    84.8411 </r>
       <r>     1.7132     4.6821    85.2721 </r>
       <r>     1.8053     3.3442    85.5800 </r>
       <r>     1.8973     8.8097    86.3910 </r>
       <r>     1.9894     8.8835    87.2088 </r>
       <r>     2.0814     9.2004    88.0558 </r>
       <r>     2.1735     6.9657    88.6971 </r>
       <r>     2.2656     6.8956    89.3319 </r>
       <r>     2.3576     7.3893    90.0121 </r>
       <r>     2.4497     5.5580    90.5238 </r>
       <r>     2.5417     2.7075    90.7730 </r>
       <r>     2.6338     3.6289    91.1071 </r>
       <r>     2.7258     2.3652    91.3249 </r>
       <r>     2.8179     4.6658    91.7544 </r>
       <r>     2.9100     2.5380    91.9880 </r>
       <r>     3.0020     0.1300    92.0000 </r>
       <r>     3.0941     0.0000    92.0000 </r>
       <r>     3.1861     0.0000    92.0000 </r>
       <r>     3.2782     0.0000    92.0000 </r>
       <r>     3.3703     0.0000    92.0000 </r>
       <r>     3.4623     0.0000    92.0000 </r>
       <r>     3.5544     0.0000    92.0000 </r>
       <r>     3.6464     0.0000    92.0000 </r>
       <r>     3.7385     0.0000    92.0000 </r>
       <r>     3.8306     0.0000    92.0000 </r>
       <r>     3.9226     0.0000    92.0000 </r>
       <r>     4.0147     0.0000    92.0000 </r>
       <r>     4.1067     0.0000    92.0000 </r>
      </set>
     </set>
    </array>
   </total>
  </dos>
 </calculation>
 <structure name="finalpos" >
  <crystal>
   <varray name="basis" >
    <v>       7.40170591       0.00000000       0.00000000 </v>
    <v>      -3.70085295       6.41006527       0.00000000 </v>
    <v>       0.00000000       0.00000000      20.00000000 </v>
   </varray>
   <i name="volume">    948.90835877 </i>
   <varray name="rec_basis" >
    <v>       0.13510399       0.07800233       0.00000000 </v>
    <v>       0.00000000       0.15600465       0.00000000 </v>
    <v>       0.00000000       0.00000000       0.05000000 </v>
   </varray>
  </crystal>
  <varray name="positions" >
   <v>       0.00000000       0.00000000       0.50100000 </v>
   <v>       0.33333333       0.00000000       0.50000000 </v>
   <v>       0.66666667       0.00000000       0.50000000 </v>
   <v>       0.00000000       0.33333333       0.50000000 </v>
   <v>       0.33333333       0.33333333       0.50000000 </v>
   <v>       0.66666667       0.33333333       0.50000000 </v>
   <v>       0.00000000       0.66666667       0.50000000 </v>
   <v>       0.33333333       0.66666667       0.50000000 </v>
   <v>       0.66666667       0.66666667       0.50000000 </v>
   <v>       0.22222222       0.11111111       0.50000000 </v>
   <v>       0.55555556       0.11111111       0.50000000 </v>
   <v>       0.88888889       0.11111111       0.50000000 </v>
   <v>       0.22222222       0.44444444       0.50000000 </v>
   <v>       0.55555556       0.44444444       0.50000000 </v>
   <v>       0.88888889       0.44444444       0.50000000 </v>
   <v>       0.22222222       0.77777778       0.50000000 </v>
   <v>       0.55555556       0.77777778       0.50000000 </v>
   <v>       0.88888889       0.77777778       0.50000000 </v>
  </varray>
 </structure>
</modeling>
