<?xml version="1.0" encoding="ISO-8859-1"?>
<modeling>
 <generator>
  <i name="program" type="string">vasp </i>
  <i name="version" type="string">6.4.1  </i>
  <i name="subversion" type="string">05Apr23 (build Feb 12 2025 00:37:39) complex                          parallel </i>
  <i name="platform" type="string">LinuxIFC </i>
  <i name="date" type="string">2025 02 14 </i>
  <i name="time" type="string">06:12:10 </i>
 </generator>
 <incar>
  <i type="string" name="SYSTEM">SCF</i>
  <i type="int" name="ISTART">     0</i>
  <i type="int" name="ICHARG">     2</i>
  <i type="int" name="NELM">    60</i>
  <i type="int" name="NELMIN">     6</i>
  <i name="EDIFF">      0.00000100</i>
  <i name="EDIFFG">     -0.00000100</i>
  <i name="ENCUT">    600.00000000</i>
  <i type="string" name="LREAL">Auto</i>
  <i type="int" name="ISMEAR">     0</i>
  <i name="SIGMA">      0.05000000</i>
  <i type="logical" name="LWAVE"> F  </i>
  <i type="logical" name="LCHARG"> F  </i>
 </incar>
 <primitive_cell>
  <structure name="primitive_cell" >
   <crystal>
    <varray name="basis" >
     <v>       7.40170591       0.00000000       0.00000000 </v>
     <v>      -3.70085295       6.41006527       0.00000000 </v>
     <v>       0.00000000       0.00000000      20.00000000 </v>
    </varray>
    <i name="volume">    948.90835877 </i>
    <varray name="rec_basis" >
     <v>       0.13510399       0.07800233       0.00000000 </v>
     <v>       0.00000000       0.15600465       0.00000000 </v>
     <v>       0.00000000       0.00000000       0.05000000 </v>
    </varray>
   </crystal>
   <varray name="positions" >
    <v>       0.00000000       0.00000000       0.49950000 </v>
    <v>       0.33333333       0.00000000       0.49950000 </v>
    <v>       0.66666667       0.00000000       0.50000000 </v>
    <v>       1.00000000       0.33333333       0.50000000 </v>
    <v>       0.33333333       0.33333333       0.50000000 </v>
    <v>       0.66666667       0.33333333       0.50000000 </v>
    <v>       1.00000000       0.66666667       0.50000000 </v>
    <v>       0.33333333       0.66666667       0.50000000 </v>
    <v>       0.66666667       0.66666667       0.50000000 </v>
    <v>       0.22222222       0.11111111       0.50000000 </v>
    <v>       0.55555556       0.11111111       0.50000000 </v>
    <v>       0.88888889       0.11111111       0.50000000 </v>
    <v>       0.22222222       0.44444444       0.50000000 </v>
    <v>       0.55555556       0.44444444       0.50000000 </v>
    <v>       0.88888889       0.44444444       0.50000000 </v>
    <v>       0.22222222       0.77777778       0.50000000 </v>
    <v>       0.55555556       0.77777778       0.50000000 </v>
    <v>       0.88888889       0.77777778       0.50000000 </v>
   </varray>
  </structure>
  <varray name="primitive_index" >
   <v type="int" >        1 </v>
   <v type="int" >        2 </v>
   <v type="int" >        3 </v>
   <v type="int" >        4 </v>
   <v type="int" >        5 </v>
   <v type="int" >        6 </v>
   <v type="int" >        7 </v>
   <v type="int" >        8 </v>
   <v type="int" >        9 </v>
   <v type="int" >       10 </v>
   <v type="int" >       11 </v>
   <v type="int" >       12 </v>
   <v type="int" >       13 </v>
   <v type="int" >       14 </v>
   <v type="int" >       15 </v>
   <v type="int" >       16 </v>
   <v type="int" >       17 </v>
   <v type="int" >       18 </v>
  </varray>
 </primitive_cell>
 <kpoints>
  <generation param="Gamma">
   <v type="int" name="divisions">       7        7        1 </v>
   <v name="usershift">      0.00000000       0.00000000       0.00000000 </v>
   <v name="genvec1">      0.14285714       0.00000000       0.00000000 </v>
   <v name="genvec2">      0.00000000       0.14285714       0.00000000 </v>
   <v name="genvec3">      0.00000000       0.00000000       1.00000000 </v>
   <v name="shift">      0.00000000       0.00000000       0.00000000 </v>
  </generation>
  <varray name="kpointlist" >
   <v>       0.00000000       0.00000000       0.00000000 </v>
   <v>       0.14285714       0.00000000       0.00000000 </v>
   <v>       0.00000000       0.14285714       0.00000000 </v>
   <v>       0.28571429       0.00000000       0.00000000 </v>
   <v>       0.00000000       0.28571429       0.00000000 </v>
   <v>       0.42857143       0.00000000       0.00000000 </v>
   <v>       0.00000000       0.42857143       0.00000000 </v>
   <v>       0.14285714       0.14285714       0.00000000 </v>
   <v>      -0.28571429       0.14285714       0.00000000 </v>
   <v>       0.28571429       0.14285714       0.00000000 </v>
   <v>      -0.14285714       0.42857143       0.00000000 </v>
   <v>      -0.42857143       0.28571429       0.00000000 </v>
   <v>       0.42857143       0.14285714       0.00000000 </v>
   <v>      -0.14285714      -0.42857143       0.00000000 </v>
   <v>       0.28571429       0.28571429       0.00000000 </v>
   <v>       0.42857143       0.28571429       0.00000000 </v>
  </varray>
  <varray name="weights" >
   <v>       0.02040816 </v>
   <v>       0.08163265 </v>
   <v>       0.04081633 </v>
   <v>       0.08163265 </v>
   <v>       0.04081633 </v>
   <v>       0.08163265 </v>
   <v>       0.04081633 </v>
   <v>       0.08163265 </v>
   <v>       0.04081633 </v>
   <v>       0.08163265 </v>
   <v>       0.08163265 </v>
   <v>       0.08163265 </v>
   <v>       0.08163265 </v>
   <v>       0.04081633 </v>
   <v>       0.08163265 </v>
   <v>       0.04081633 </v>
  </varray>
 </kpoints>
 <parameters>
  <separator name="general" >
   <i type="string" name="SYSTEM">SCF</i>
   <i type="logical" name="LCOMPAT"> F  </i>
  </separator>
  <separator name="electronic" >
   <i type="string" name="PREC">normal</i>
   <i name="ENMAX">    600.00000000</i>
   <i name="ENAUG">    644.87300000</i>
   <i name="EDIFF">      0.00000100</i>
   <i type="int" name="IALGO">    38</i>
   <i type="int" name="IWAVPR">    10</i>
   <i type="int" name="NBANDS">    46</i>
   <i type="int" name="NBANDSLOW">    -1</i>
   <i type="int" name="NBANDSHIGH">    -1</i>
   <i name="NELECT">     72.00000000</i>
   <i type="int" name="TURBO">     0</i>
   <i type="int" name="IRESTART">     0</i>
   <i type="int" name="NREBOOT">     0</i>
   <i type="int" name="NMIN">     0</i>
   <i name="EREF">      0.00000000</i>
   <separator name="electronic smearing" >
    <i type="int" name="ISMEAR">     0</i>
    <i name="SIGMA">      0.05000000</i>
    <i name="KSPACING">      0.50000000</i>
    <i type="logical" name="KGAMMA"> T  </i>
    <i type="logical" name="KBLOWUP"> T  </i>
   </separator>
   <separator name="electronic projectors" >
    <i type="logical" name="LREAL"> T  </i>
    <v name="ROPT">     -0.00050000</v>
    <i type="int" name="LMAXPAW">  -100</i>
    <i type="int" name="LMAXMIX">     2</i>
    <i type="logical" name="NLSPLINE"> F  </i>
   </separator>
   <separator name="electronic startup" >
    <i type="int" name="ISTART">     0</i>
    <i type="int" name="ICHARG">     2</i>
    <i type="int" name="INIWAV">     1</i>
   </separator>
   <separator name="electronic spin" >
    <i type="int" name="ISPIN">     1</i>
    <i type="logical" name="LNONCOLLINEAR"> F  </i>
    <v name="MAGMOM">      1.00000000      1.00000000      1.00000000      1.00000000      1.00000000      1.00000000      1.00000000      1.00000000      1.00000000      1.00000000      1.00000000      1.00000000      1.00000000      1.00000000      1.00000000      1.00000000      1.00000000      1.00000000</v>
    <i name="NUPDOWN">     -1.00000000</i>
    <i type="logical" name="LSORBIT"> F  </i>
    <v name="SAXIS">      0.00000000      0.00000000      1.00000000</v>
    <i type="logical" name="LSPIRAL"> F  </i>
    <v name="QSPIRAL">      0.00000000      0.00000000      0.00000000</v>
    <i type="logical" name="LZEROZ"> F  </i>
   </separator>
   <separator name="electronic exchange-correlation" >
    <i type="logical" name="LASPH"> F  </i>
    <i type="logical" name="LMETAGGA"> F  </i>
   </separator>
   <separator name="electronic convergence" >
    <i type="int" name="NELM">    60</i>
    <i type="int" name="NELMDL">    -5</i>
    <i type="int" name="NELMIN">     6</i>
    <i name="ENINI">    600.00000000</i>
    <separator name="electronic convergence detail" >
     <i type="logical" name="LDIAG"> T  </i>
     <i type="logical" name="LSUBROT"> F  </i>
     <i name="WEIMIN">      0.00000000</i>
     <i name="EBREAK">      0.00000000</i>
     <i name="DEPER">      0.30000000</i>
     <i type="int" name="NRMM">     4</i>
     <i name="TIME">      0.40000000</i>
    </separator>
   </separator>
   <separator name="electronic mixer" >
    <i name="AMIX">      0.40000000</i>
    <i name="BMIX">      1.00000000</i>
    <i name="AMIN">      0.10000000</i>
    <i name="AMIX_MAG">      1.60000000</i>
    <i name="BMIX_MAG">      1.00000000</i>
    <separator name="electronic mixer details" >
     <i type="int" name="IMIX">     4</i>
     <i type="logical" name="MIXFIRST"> F  </i>
     <i type="int" name="MAXMIX">   -45</i>
     <i name="WC">    100.00000000</i>
     <i type="int" name="INIMIX">     1</i>
     <i type="int" name="MIXPRE">     1</i>
     <i type="int" name="MREMOVE">     5</i>
    </separator>
   </separator>
   <separator name="electronic dipolcorrection" >
    <i type="logical" name="LDIPOL"> F  </i>
    <i type="logical" name="LMONO"> F  </i>
    <i type="int" name="IDIPOL">     0</i>
    <i name="EPSILON">      1.00000000</i>
    <v name="DIPOL">   -100.00000000   -100.00000000   -100.00000000</v>
    <i name="EFIELD">      0.00000000</i>
   </separator>
  </separator>
  <separator name="grids" >
   <i type="int" name="NGX">    48</i>
   <i type="int" name="NGY">    48</i>
   <i type="int" name="NGZ">   120</i>
   <i type="int" name="NGXF">    96</i>
   <i type="int" name="NGYF">    96</i>
   <i type="int" name="NGZF">   240</i>
   <i type="logical" name="ADDGRID"> F  </i>
  </separator>
  <separator name="ionic" >
   <i type="int" name="NSW">     0</i>
   <i type="int" name="IBRION">    -1</i>
   <i type="int" name="MDALGO">     0</i>
   <i type="int" name="ISIF">     2</i>
   <i name="PSTRESS">      0.00000000</i>
   <i name="EDIFFG">     -0.00000100</i>
   <i type="int" name="NFREE">     0</i>
   <i name="POTIM">      0.50000000</i>
   <i name="SMASS">     -3.00000000</i>
   <i name="SCALEE">      1.00000000</i>
  </separator>
  <separator name="ionic md" >
   <i name="TEBEG">      0.00010000</i>
   <i name="TEEND">      0.00010000</i>
   <i type="int" name="NBLOCK">     1</i>
   <i type="int" name="KBLOCK">     1</i>
   <i type="int" name="NPACO">   256</i>
   <i name="APACO">     10.00000000</i>
  </separator>
  <separator name="symmetry" >
   <i type="int" name="ISYM">     2</i>
   <i name="SYMPREC">      0.00001000</i>
  </separator>
  <separator name="dos" >
   <i type="int" name="LORBIT">     0</i>
   <v name="RWIGS">     -1.00000000</v>
   <i type="int" name="NEDOS">   301</i>
   <i name="EMIN">     10.00000000</i>
   <i name="EMAX">    -10.00000000</i>
   <i name="EFERMI">      0.00000000</i>
  </separator>
  <separator name="writing" >
   <i type="int" name="NWRITE">     2</i>
   <i type="logical" name="LWAVE"> F  </i>
   <i type="logical" name="LDOWNSAMPLE"> F  </i>
   <i type="logical" name="LCHARG"> F  </i>
   <i type="logical" name="LPARD"> F  </i>
   <i type="logical" name="LVTOT"> F  </i>
   <i type="logical" name="LVHAR"> F  </i>
   <i type="logical" name="LELF"> F  </i>
   <i type="logical" name="LOPTICS"> F  </i>
   <v name="STM">      0.00000000      0.00000000      0.00000000      0.00000000      0.00000000      0.00000000      0.00000000</v>
  </separator>
  <separator name="performance" >
   <i type="int" name="NPAR">     2</i>
   <i type="int" name="NSIM">     4</i>
   <i type="int" name="NBLK">    -1</i>
   <i type="logical" name="LPLANE"> T  </i>
   <i type="logical" name="LSCALAPACK"> T  </i>
   <i type="logical" name="LSCAAWARE"> F  </i>
   <i type="logical" name="LSCALU"> F  </i>
   <i type="logical" name="LASYNC"> F  </i>
   <i type="logical" name="LORBITALREAL"> F  </i>
  </separator>
  <separator name="miscellaneous" >
   <i type="int" name="IDIOT">     3</i>
   <i type="int" name="PHON_NSTRUCT">    -1</i>
   <i type="logical" name="LMUSIC"> F  </i>
   <v name="POMASS">     12.01100000</v>
   <v name="DARWINR">      0.00000000</v>
   <v name="DARWINV">      1.00000000</v>
   <i type="logical" name="LCORR"> T  </i>
  </separator>
  <i type="logical" name="GGA_COMPAT"> T  </i>
  <i type="logical" name="LBERRY"> F  </i>
  <i type="int" name="ICORELEVEL">     0</i>
  <i type="logical" name="LDAU"> F  </i>
  <i type="int" name="I_CONSTRAINED_M">     0</i>
  <separator name="electronic exchange-correlation" >
   <i type="string" name="GGA">--</i>
   <i type="int" name="VOSKOWN">     0</i>
   <i type="logical" name="LHFCALC"> F  </i>
   <i type="string" name="PRECFOCK"></i>
   <i type="logical" name="LSYMGRAD"> F  </i>
   <i type="logical" name="LHFONE"> F  </i>
   <i type="logical" name="LRHFCALC"> F  </i>
   <i type="logical" name="LTHOMAS"> F  </i>
   <i type="logical" name="LMODELHF"> F  </i>
   <i type="logical" name="LFOCKACE"> F  </i>
   <i name="ENCUT4O">     -1.00000000</i>
   <i type="int" name="EXXOEP">     0</i>
   <i type="int" name="FOURORBIT">     0</i>
   <i name="AEXX">      0.00000000</i>
   <i name="HFALPHA">      0.00000000</i>
   <i name="MCALPHA">      0.00000000</i>
   <i name="ALDAX">      1.00000000</i>
   <i name="AGGAX">      1.00000000</i>
   <i name="ALDAC">      1.00000000</i>
   <i name="AGGAC">      1.00000000</i>
   <i type="int" name="NKREDX">     1</i>
   <i type="int" name="NKREDY">     1</i>
   <i type="int" name="NKREDZ">     1</i>
   <i type="logical" name="SHIFTRED"> F  </i>
   <i type="logical" name="ODDONLY"> F  </i>
   <i type="logical" name="EVENONLY"> F  </i>
   <i type="int" name="LMAXFOCK">     0</i>
   <i type="int" name="NMAXFOCKAE">     0</i>
   <i type="logical" name="LFOCKAEDFT"> F  </i>
   <i name="HFSCREEN">      0.00000000</i>
   <i name="HFSCREENC">      0.00000000</i>
   <i type="int" name="NBANDSGWLOW">     0</i>
  </separator>
  <separator name="vdW DFT" >
   <i type="logical" name="LUSE_VDW"> F  </i>
   <i type="int" name="IVDW_NL">     1</i>
   <i type="logical" name="LSPIN_VDW"> F  </i>
   <i name="Zab_VDW">     -0.84910000</i>
   <i name="PARAM1">      0.12340000</i>
   <i name="PARAM2">      1.00000000</i>
   <i name="PARAM3">      0.00000000</i>
  </separator>
  <separator name="model GW" >
   <i type="int" name="MODEL_GW">     0</i>
   <i name="MODEL_EPS0">     31.63027863</i>
   <i name="MODEL_ALPHA">      1.00000000</i>
  </separator>
  <separator name="linear response parameters" >
   <i type="logical" name="LEPSILON"> F  </i>
   <i type="logical" name="LRPA"> F  </i>
   <i type="logical" name="LNABLA"> F  </i>
   <i type="logical" name="LVEL"> F  </i>
   <i name="CSHIFT">      0.10000000</i>
   <i name="OMEGAMAX">     -1.00000000</i>
   <i name="DEG_THRESHOLD">      0.00200000</i>
   <i name="RTIME">     -0.10000000</i>
   <i name="WPLASMAI">      0.00000000</i>
   <v name="DFIELD">      0.00000000      0.00000000      0.00000000</v>
   <v name="WPLASMA">      0.00000000      0.00000000      0.00000000      0.00000000      0.00000000      0.00000000      0.00000000      0.00000000      0.00000000</v>
  </separator>
  <separator name="orbital magnetization" >
   <i type="logical" name="NUCIND"> F  </i>
   <v name="MAGPOS">      0.00000000      0.00000000      0.00000000</v>
   <i type="logical" name="LNICSALL"> T  </i>
   <i type="logical" name="ORBITALMAG"> F  </i>
   <i type="logical" name="LMAGBLOCH"> F  </i>
   <i type="logical" name="LCHIMAG"> F  </i>
   <i type="logical" name="LGAUGE"> T  </i>
   <i type="int" name="MAGATOM">     0</i>
   <v name="MAGDIPOL">      0.00000000      0.00000000      0.00000000</v>
   <v name="AVECCONST">      0.00000000      0.00000000      0.00000000</v>
  </separator>
  <separator name="response functions" >
   <i type="logical" name="LALL_IN_ONE"> F  </i>
   <i type="int" name="IALL_IN_ONE">    -1</i>
   <i type="int" name="NBANDS_WAVE">    -1</i>
   <i type="logical" name="LFINITE_TEMPERATURE"> F  </i>
   <i type="logical" name="LADDER"> F  </i>
   <i type="logical" name="LRPAFORCE"> F  </i>
   <i type="logical" name="LFXC"> F  </i>
   <i type="logical" name="LHARTREE"> T  </i>
   <i type="int" name="IBSE">     0</i>
   <v type="int" name="KPOINT">    -1     0     0     0</v>
   <i type="logical" name="LTCTC"> F  </i>
   <i type="logical" name="LTCTE"> F  </i>
   <i type="logical" name="LTETE"> F  </i>
   <i type="logical" name="LTRIPLET"> F  </i>
   <i type="logical" name="LFXCEPS"> F  </i>
   <i type="logical" name="LFXHEG"> F  </i>
   <i type="int" name="NATURALO">     2</i>
   <i type="logical" name="LHOLEGF"> F  </i>
   <i type="logical" name="L2ORDER"> F  </i>
   <i type="logical" name="LDMP1"> F  </i>
   <i type="logical" name="LMP2LT"> F  </i>
   <i type="logical" name="LSMP2LT"> F  </i>
   <i type="logical" name="LGWLF"> F  </i>
   <i name="ENCUTGW">     -1.60000002</i>
   <i name="ENCUTGWSOFT">     -1.60000002</i>
   <i name="ENCUTLF">     -1.00000000</i>
   <i type="logical" name="LESF_SPLINES"> F  </i>
   <i type="int" name="LMAXMP2">    -1</i>
   <i name="SCISSOR">      0.00000000</i>
   <i type="int" name="NOMEGA">     0</i>
   <i type="int" name="NOMEGAR">     0</i>
   <i type="int" name="NBANDSGW">    -1</i>
   <i type="int" name="NBANDSO">    -1</i>
   <i type="int" name="NBANDSV">    -1</i>
   <i type="int" name="NELMGW">     1</i>
   <i type="int" name="NELMHF">     1</i>
   <i type="int" name="DIM">     3</i>
   <i type="int" name="IESPILON">     4</i>
   <i type="int" name="ANTIRES">     0</i>
   <i name="OMEGAMAX">    -30.00000000</i>
   <i name="OMEGAMIN">    -30.00000000</i>
   <i name="OMEGATL">   -200.00000000</i>
   <i type="int" name="OMEGAGRID">     0</i>
   <i name="CSHIFT">     -0.10000000</i>
   <i type="logical" name="LSELFENERGY"> F  </i>
   <i type="logical" name="LSPECTRAL"> F  </i>
   <i type="logical" name="LSPECTRALGW"> F  </i>
   <i type="logical" name="LSINGLES"> F  </i>
   <i type="logical" name="LFERMIGW"> F  </i>
   <i type="logical" name="ODDONLYGW"> F  </i>
   <i type="logical" name="EVENONLYGW"> F  </i>
   <i type="int" name="NKREDLFX">     1</i>
   <i type="int" name="NKREDLFY">     1</i>
   <i type="int" name="NKREDLFZ">     1</i>
   <i type="int" name="MAXMEM">  2800</i>
   <i type="int" name="TELESCOPE">     0</i>
   <i type="int" name="NTAUPAR">    -1</i>
   <i type="int" name="NOMEGAPAR">    -1</i>
   <i name="DAMP_NEWTON">      0.80000001</i>
   <i name="LAMBDA">      1.00000000</i>
  </separator>
  <separator name="External order field" >
   <i name="OFIELD_KAPPA">      0.00000000</i>
   <v name="OFIELD_K">      0.00000000      0.00000000      0.00000000</v>
   <i name="OFIELD_Q6_NEAR">      0.00000000</i>
   <i name="OFIELD_Q6_FAR">      0.00000000</i>
   <i name="OFIELD_A">      0.00000000</i>
  </separator>
  <separator name="optional k-points parameters" >
   <i type="int" name="KPOINTS_OPT_MODE">     1</i>
   <i type="logical" name="LKPOINTS_OPT"> F  </i>
  </separator>
 </parameters>
 <atominfo>
  <atoms>      18 </atoms>
  <types>       1 </types>
  <array name="atoms" >
   <dimension dim="1">ion</dimension>
   <field type="string">element</field>
   <field type="int">atomtype</field>
   <set>
    <rc><c>C </c><c>   1</c></rc>
    <rc><c>C </c><c>   1</c></rc>
    <rc><c>C </c><c>   1</c></rc>
    <rc><c>C </c><c>   1</c></rc>
    <rc><c>C </c><c>   1</c></rc>
    <rc><c>C </c><c>   1</c></rc>
    <rc><c>C </c><c>   1</c></rc>
    <rc><c>C </c><c>   1</c></rc>
    <rc><c>C </c><c>   1</c></rc>
    <rc><c>C </c><c>   1</c></rc>
    <rc><c>C </c><c>   1</c></rc>
    <rc><c>C </c><c>   1</c></rc>
    <rc><c>C </c><c>   1</c></rc>
    <rc><c>C </c><c>   1</c></rc>
    <rc><c>C </c><c>   1</c></rc>
    <rc><c>C </c><c>   1</c></rc>
    <rc><c>C </c><c>   1</c></rc>
    <rc><c>C </c><c>   1</c></rc>
   </set>
  </array>
  <array name="atomtypes" >
   <dimension dim="1">type</dimension>
   <field type="int">atomspertype</field>
   <field type="string">element</field>
   <field>mass</field>
   <field>valence</field>
   <field type="string">pseudopotential</field>
   <set>
    <rc><c>  18</c><c>C </c><c>     12.01100000</c><c>      4.00000000</c><c>  PAW_PBE C 08Apr2002                   </c></rc>
   </set>
  </array>
 </atominfo>
 <structure name="initialpos" >
  <crystal>
   <varray name="basis" >
    <v>       7.40170591       0.00000000       0.00000000 </v>
    <v>      -3.70085295       6.41006527       0.00000000 </v>
    <v>       0.00000000       0.00000000      20.00000000 </v>
   </varray>
   <i name="volume">    948.90835877 </i>
   <varray name="rec_basis" >
    <v>       0.13510399       0.07800233       0.00000000 </v>
    <v>       0.00000000       0.15600465       0.00000000 </v>
    <v>       0.00000000       0.00000000       0.05000000 </v>
   </varray>
  </crystal>
  <varray name="positions" >
   <v>       0.00000000       0.00000000       0.49950000 </v>
   <v>       0.33333333       0.00000000       0.49950000 </v>
   <v>       0.66666667       0.00000000       0.50000000 </v>
   <v>       0.00000000       0.33333333       0.50000000 </v>
   <v>       0.33333333       0.33333333       0.50000000 </v>
   <v>       0.66666667       0.33333333       0.50000000 </v>
   <v>       0.00000000       0.66666667       0.50000000 </v>
   <v>       0.33333333       0.66666667       0.50000000 </v>
   <v>       0.66666667       0.66666667       0.50000000 </v>
   <v>       0.22222222       0.11111111       0.50000000 </v>
   <v>       0.55555556       0.11111111       0.50000000 </v>
   <v>       0.88888889       0.11111111       0.50000000 </v>
   <v>       0.22222222       0.44444444       0.50000000 </v>
   <v>       0.55555556       0.44444444       0.50000000 </v>
   <v>       0.88888889       0.44444444       0.50000000 </v>
   <v>       0.22222222       0.77777778       0.50000000 </v>
   <v>       0.55555556       0.77777778       0.50000000 </v>
   <v>       0.88888889       0.77777778       0.50000000 </v>
  </varray>
 </structure>
 <calculation>
  <scstep>
   <time name="dav">    3.77    3.92</time>
   <time name="total">    3.86    4.01</time>
   <energy>
    <i name="alphaZ">     28.04858418 </i>
    <i name="ewald">  11638.80630244 </i>
    <i name="hartreedc"> -13553.13614653 </i>
    <i name="XCdc">    237.17689281 </i>
    <i name="pawpsdc">   1953.39683484 </i>
    <i name="pawaedc">  -1963.64613940 </i>
    <i name="eentropy">     -0.01231161 </i>
    <i name="bandstr">   -254.88277750 </i>
    <i name="atom">   2648.70517965 </i>
    <i name="e_fr_energy">    734.45641888 </i>
    <i name="e_wo_entrp">    734.46873049 </i>
    <i name="e_0_energy">    734.46257469 </i>
   </energy>
  </scstep>
  <scstep>
   <time name="dav">    5.13    4.12</time>
   <time name="total">    5.13    4.12</time>
   <energy>
    <i name="e_fr_energy">    -25.00408322 </i>
    <i name="e_wo_entrp">    -25.00372483 </i>
    <i name="e_0_energy">    -25.00390403 </i>
   </energy>
  </scstep>
  <scstep>
   <time name="dav">    4.13    4.27</time>
   <time name="total">    4.13    4.26</time>
   <energy>
    <i name="e_fr_energy">   -172.41948396 </i>
    <i name="e_wo_entrp">   -172.41819747 </i>
    <i name="e_0_energy">   -172.41884072 </i>
   </energy>
  </scstep>
  <scstep>
   <time name="dav">    4.08    4.24</time>
   <time name="total">    4.08    4.24</time>
   <energy>
    <i name="e_fr_energy">   -177.35441255 </i>
    <i name="e_wo_entrp">   -177.35211927 </i>
    <i name="e_0_energy">   -177.35326591 </i>
   </energy>
  </scstep>
  <scstep>
   <time name="dav">    4.62    4.81</time>
   <time name="total">    4.79    4.99</time>
   <energy>
    <i name="e_fr_energy">   -177.48669013 </i>
    <i name="e_wo_entrp">   -177.48438732 </i>
    <i name="e_0_energy">   -177.48553873 </i>
   </energy>
  </scstep>
  <scstep>
   <time name="dav">    3.87    4.03</time>
   <time name="total">    4.13    4.29</time>
   <energy>
    <i name="e_fr_energy">   -169.32034179 </i>
    <i name="e_wo_entrp">   -169.31803898 </i>
    <i name="e_0_energy">   -169.31919038 </i>
   </energy>
  </scstep>
  <scstep>
   <time name="dav">    3.78    3.93</time>
   <time name="total">    4.04    4.20</time>
   <energy>
    <i name="e_fr_energy">   -166.15271284 </i>
    <i name="e_wo_entrp">   -166.15041003 </i>
    <i name="e_0_energy">   -166.15156143 </i>
   </energy>
  </scstep>
  <scstep>
   <time name="dav">    4.03    4.17</time>
   <time name="total">    4.29    4.44</time>
   <energy>
    <i name="e_fr_energy">   -166.08969203 </i>
    <i name="e_wo_entrp">   -166.08738922 </i>
    <i name="e_0_energy">   -166.08854063 </i>
   </energy>
  </scstep>
  <scstep>
   <time name="dav">    4.17    3.13</time>
   <time name="total">    4.43    3.40</time>
   <energy>
    <i name="e_fr_energy">   -166.07698246 </i>
    <i name="e_wo_entrp">   -166.07467965 </i>
    <i name="e_0_energy">   -166.07583105 </i>
   </energy>
  </scstep>
  <scstep>
   <time name="dav">    3.73    3.87</time>
   <time name="total">    3.99    4.14</time>
   <energy>
    <i name="e_fr_energy">   -166.05826329 </i>
    <i name="e_wo_entrp">   -166.05596048 </i>
    <i name="e_0_energy">   -166.05711188 </i>
   </energy>
  </scstep>
  <scstep>
   <time name="dav">    3.82    3.97</time>
   <time name="total">    4.08    4.23</time>
   <energy>
    <i name="e_fr_energy">   -166.06280601 </i>
    <i name="e_wo_entrp">   -166.06050320 </i>
    <i name="e_0_energy">   -166.06165461 </i>
   </energy>
  </scstep>
  <scstep>
   <time name="dav">    3.57    3.71</time>
   <time name="total">    3.83    3.97</time>
   <energy>
    <i name="e_fr_energy">   -166.06737844 </i>
    <i name="e_wo_entrp">   -166.06507562 </i>
    <i name="e_0_energy">   -166.06622703 </i>
   </energy>
  </scstep>
  <scstep>
   <time name="dav">    3.85    4.00</time>
   <time name="total">    4.11    4.27</time>
   <energy>
    <i name="e_fr_energy">   -166.07201279 </i>
    <i name="e_wo_entrp">   -166.06970998 </i>
    <i name="e_0_energy">   -166.07086138 </i>
   </energy>
  </scstep>
  <scstep>
   <time name="dav">    3.63    3.77</time>
   <time name="total">    3.91    4.05</time>
   <energy>
    <i name="e_fr_energy">   -166.07530296 </i>
    <i name="e_wo_entrp">   -166.07300015 </i>
    <i name="e_0_energy">   -166.07415155 </i>
   </energy>
  </scstep>
  <scstep>
   <time name="dav">    4.05    4.20</time>
   <time name="total">    4.31    4.47</time>
   <energy>
    <i name="e_fr_energy">   -166.07599895 </i>
    <i name="e_wo_entrp">   -166.07369614 </i>
    <i name="e_0_energy">   -166.07484754 </i>
   </energy>
  </scstep>
  <scstep>
   <time name="dav">    3.64    2.60</time>
   <time name="total">    3.91    2.88</time>
   <energy>
    <i name="e_fr_energy">   -166.07623321 </i>
    <i name="e_wo_entrp">   -166.07393040 </i>
    <i name="e_0_energy">   -166.07508181 </i>
   </energy>
  </scstep>
  <scstep>
   <time name="dav">    3.49    3.62</time>
   <time name="total">    3.75    3.89</time>
   <energy>
    <i name="e_fr_energy">   -166.07633161 </i>
    <i name="e_wo_entrp">   -166.07402880 </i>
    <i name="e_0_energy">   -166.07518021 </i>
   </energy>
  </scstep>
  <scstep>
   <time name="dav">    3.32    3.44</time>
   <time name="total">    3.58    3.71</time>
   <energy>
    <i name="e_fr_energy">   -166.07637985 </i>
    <i name="e_wo_entrp">   -166.07407704 </i>
    <i name="e_0_energy">   -166.07522845 </i>
   </energy>
  </scstep>
  <scstep>
   <time name="dav">    3.36    3.48</time>
   <time name="total">    3.62    3.75</time>
   <energy>
    <i name="e_fr_energy">   -166.07640900 </i>
    <i name="e_wo_entrp">   -166.07410619 </i>
    <i name="e_0_energy">   -166.07525760 </i>
   </energy>
  </scstep>
  <scstep>
   <time name="dav">    2.71    2.82</time>
   <time name="total">    2.97    3.09</time>
   <energy>
    <i name="e_fr_energy">   -166.07642567 </i>
    <i name="e_wo_entrp">   -166.07412285 </i>
    <i name="e_0_energy">   -166.07527426 </i>
   </energy>
  </scstep>
  <scstep>
   <time name="dav">    2.60    2.70</time>
   <time name="total">    2.86    2.97</time>
   <energy>
    <i name="e_fr_energy">   -166.07642979 </i>
    <i name="e_wo_entrp">   -166.07412698 </i>
    <i name="e_0_energy">   -166.07527838 </i>
   </energy>
  </scstep>
  <scstep>
   <time name="dav">    2.52    2.61</time>
   <time name="total">    2.60    2.70</time>
   <energy>
    <i name="alphaZ">     28.04858418 </i>
    <i name="ewald">  11638.80630244 </i>
    <i name="hartreedc"> -13861.46379334 </i>
    <i name="XCdc">    247.81307563 </i>
    <i name="pawpsdc">   7452.60046746 </i>
    <i name="pawaedc">  -7464.86369423 </i>
    <i name="eentropy">     -0.00230281 </i>
    <i name="bandstr">   -855.72024962 </i>
    <i name="atom">   2648.70517965 </i>
    <i name="e_fr_energy">   -166.07643064 </i>
    <i name="e_wo_entrp">   -166.07412783 </i>
    <i name="e_0_energy">   -166.07527923 </i>
   </energy>
  </scstep>
  <structure>
   <crystal>
    <varray name="basis" >
     <v>       7.40170591       0.00000000       0.00000000 </v>
     <v>      -3.70085295       6.41006527       0.00000000 </v>
     <v>       0.00000000       0.00000000      20.00000000 </v>
    </varray>
    <i name="volume">    948.90835877 </i>
    <varray name="rec_basis" >
     <v>       0.13510399       0.07800233       0.00000000 </v>
     <v>       0.00000000       0.15600465       0.00000000 </v>
     <v>       0.00000000       0.00000000       0.05000000 </v>
    </varray>
   </crystal>
   <varray name="positions" >
    <v>       0.00000000       0.00000000       0.49950000 </v>
    <v>       0.33333333       0.00000000       0.49950000 </v>
    <v>       0.66666667       0.00000000       0.50000000 </v>
    <v>       0.00000000       0.33333333       0.50000000 </v>
    <v>       0.33333333       0.33333333       0.50000000 </v>
    <v>       0.66666667       0.33333333       0.50000000 </v>
    <v>       0.00000000       0.66666667       0.50000000 </v>
    <v>       0.33333333       0.66666667       0.50000000 </v>
    <v>       0.66666667       0.66666667       0.50000000 </v>
    <v>       0.22222222       0.11111111       0.50000000 </v>
    <v>       0.55555556       0.11111111       0.50000000 </v>
    <v>       0.88888889       0.11111111       0.50000000 </v>
    <v>       0.22222222       0.44444444       0.50000000 </v>
    <v>       0.55555556       0.44444444       0.50000000 </v>
    <v>       0.88888889       0.44444444       0.50000000 </v>
    <v>       0.22222222       0.77777778       0.50000000 </v>
    <v>       0.55555556       0.77777778       0.50000000 </v>
    <v>       0.88888889       0.77777778       0.50000000 </v>
   </varray>
  </structure>
  <varray name="forces" >
   <v>      -0.00026763       0.00012359       0.14874795 </v>
   <v>       0.00026763       0.00012359       0.14874795 </v>
   <v>       0.00000000       0.00005818       0.00957140 </v>
   <v>      -0.00003207      -0.00000579       0.00260253 </v>
   <v>       0.00000000      -0.00001255       0.00957098 </v>
   <v>       0.00003207      -0.00000579       0.00260253 </v>
   <v>      -0.00000000      -0.00006264       0.00957081 </v>
   <v>      -0.00002343      -0.00002080       0.00260260 </v>
   <v>       0.00002343      -0.00002080       0.00260260 </v>
   <v>      -0.00000000      -0.00063511      -0.12348090 </v>
   <v>      -0.00056739      -0.00037007      -0.05268709 </v>
   <v>       0.00056739      -0.00037007      -0.05268709 </v>
   <v>      -0.00001452       0.00000197       0.00563761 </v>
   <v>       0.00001452       0.00000197       0.00563761 </v>
   <v>       0.00000000       0.00000910       0.01810826 </v>
   <v>       0.00002467       0.00059774      -0.06515704 </v>
   <v>       0.00000000      -0.00001027      -0.00683368 </v>
   <v>      -0.00002467       0.00059774      -0.06515704 </v>
  </varray>
  <varray name="stress" >
   <v>      -0.16933721      -0.00000000       0.00000000 </v>
   <v>      -0.00000000      -0.17034675      -0.00000423 </v>
   <v>       0.00000000      -0.00000424      -0.57471325 </v>
  </varray>
  <energy>
   <i name="e_fr_energy">   -166.07643064 </i>
   <i name="e_wo_entrp">   -166.07412783 </i>
   <i name="e_0_energy">   -166.07527923 </i>
  </energy>
  <time name="totalsc">   89.79   89.61</time>
  <eigenvalues>
   <array>
    <dimension dim="1">band</dimension>
    <dimension dim="2">kpoint</dimension>
    <dimension dim="3">spin</dimension>
    <field>eigene</field>
    <field>occ</field>
    <set>
     <set comment="spin 1">
      <set comment="kpoint 1">
       <r>  -22.2558    1.0000 </r>
       <r>  -19.6734    1.0000 </r>
       <r>  -19.6733    1.0000 </r>
       <r>  -19.6733    1.0000 </r>
       <r>  -19.6733    1.0000 </r>
       <r>  -19.6732    1.0000 </r>
       <r>  -19.6732    1.0000 </r>
       <r>  -15.3407    1.0000 </r>
       <r>  -15.3407    1.0000 </r>
       <r>  -15.3407    1.0000 </r>
       <r>  -15.3406    1.0000 </r>
       <r>  -13.2895    1.0000 </r>
       <r>  -13.2895    1.0000 </r>
       <r>  -12.3747    1.0000 </r>
       <r>  -12.3747    1.0000 </r>
       <r>  -12.3746    1.0000 </r>
       <r>  -12.3746    1.0000 </r>
       <r>  -12.3745    1.0000 </r>
       <r>  -12.3745    1.0000 </r>
       <r>  -10.3598    1.0000 </r>
       <r>   -8.5236    1.0000 </r>
       <r>   -8.5236    1.0000 </r>
       <r>   -8.5236    1.0000 </r>
       <r>   -8.5236    1.0000 </r>
       <r>   -8.5234    1.0000 </r>
       <r>   -8.5233    1.0000 </r>
       <r>   -7.3709    1.0000 </r>
       <r>   -7.3709    1.0000 </r>
       <r>   -7.3708    1.0000 </r>
       <r>   -7.3708    1.0000 </r>
       <r>   -7.3707    1.0000 </r>
       <r>   -7.3707    1.0000 </r>
       <r>   -5.7845    1.0000 </r>
       <r>   -5.7844    1.0000 </r>
       <r>   -2.7554    0.5010 </r>
       <r>   -2.7553    0.5003 </r>
       <r>   -2.7553    0.4996 </r>
       <r>   -2.7552    0.4991 </r>
       <r>    0.5193    0.0000 </r>
       <r>    1.3117    0.0000 </r>
       <r>    1.6336    0.0000 </r>
       <r>    2.1432    0.0000 </r>
       <r>    2.1433    0.0000 </r>
       <r>    2.1441    0.0000 </r>
       <r>    2.1442    0.0000 </r>
       <r>    2.1442    0.0000 </r>
      </set>
      <set comment="kpoint 2">
       <r>  -22.2022    1.0000 </r>
       <r>  -20.3488    1.0000 </r>
       <r>  -19.9841    1.0000 </r>
       <r>  -19.9841    1.0000 </r>
       <r>  -19.2624    1.0000 </r>
       <r>  -19.2624    1.0000 </r>
       <r>  -18.9061    1.0000 </r>
       <r>  -15.9952    1.0000 </r>
       <r>  -15.9952    1.0000 </r>
       <r>  -14.9132    1.0000 </r>
       <r>  -14.9132    1.0000 </r>
       <r>  -13.5975    1.0000 </r>
       <r>  -12.9701    1.0000 </r>
       <r>  -12.9701    1.0000 </r>
       <r>  -12.9562    1.0000 </r>
       <r>  -12.9562    1.0000 </r>
       <r>  -11.7351    1.0000 </r>
       <r>  -11.7350    1.0000 </r>
       <r>  -11.1176    1.0000 </r>
       <r>  -10.2958    1.0000 </r>
       <r>   -8.8634    1.0000 </r>
       <r>   -8.8633    1.0000 </r>
       <r>   -8.8291    1.0000 </r>
       <r>   -8.5097    1.0000 </r>
       <r>   -8.5095    1.0000 </r>
       <r>   -8.1320    1.0000 </r>
       <r>   -8.1267    1.0000 </r>
       <r>   -7.7134    1.0000 </r>
       <r>   -7.7132    1.0000 </r>
       <r>   -6.9228    1.0000 </r>
       <r>   -6.9227    1.0000 </r>
       <r>   -6.5570    1.0000 </r>
       <r>   -6.0046    1.0000 </r>
       <r>   -5.9001    1.0000 </r>
       <r>   -3.5267    1.0000 </r>
       <r>   -3.5266    1.0000 </r>
       <r>   -2.0047    0.0000 </r>
       <r>   -2.0047    0.0000 </r>
       <r>    0.5918    0.0000 </r>
       <r>    0.8748    0.0000 </r>
       <r>    1.3853    0.0000 </r>
       <r>    1.4735    0.0000 </r>
       <r>    1.4736    0.0000 </r>
       <r>    1.7082    0.0000 </r>
       <r>    2.6303    0.0000 </r>
       <r>    2.7603    0.0000 </r>
      </set>
      <set comment="kpoint 3">
       <r>  -22.2022    1.0000 </r>
       <r>  -20.3488    1.0000 </r>
       <r>  -19.9841    1.0000 </r>
       <r>  -19.9841    1.0000 </r>
       <r>  -19.2624    1.0000 </r>
       <r>  -19.2624    1.0000 </r>
       <r>  -18.9061    1.0000 </r>
       <r>  -15.9952    1.0000 </r>
       <r>  -15.9952    1.0000 </r>
       <r>  -14.9132    1.0000 </r>
       <r>  -14.9132    1.0000 </r>
       <r>  -13.5975    1.0000 </r>
       <r>  -12.9701    1.0000 </r>
       <r>  -12.9701    1.0000 </r>
       <r>  -12.9562    1.0000 </r>
       <r>  -12.9562    1.0000 </r>
       <r>  -11.7351    1.0000 </r>
       <r>  -11.7351    1.0000 </r>
       <r>  -11.1177    1.0000 </r>
       <r>  -10.2958    1.0000 </r>
       <r>   -8.8635    1.0000 </r>
       <r>   -8.8633    1.0000 </r>
       <r>   -8.8291    1.0000 </r>
       <r>   -8.5097    1.0000 </r>
       <r>   -8.5095    1.0000 </r>
       <r>   -8.1318    1.0000 </r>
       <r>   -8.1269    1.0000 </r>
       <r>   -7.7133    1.0000 </r>
       <r>   -7.7132    1.0000 </r>
       <r>   -6.9227    1.0000 </r>
       <r>   -6.9227    1.0000 </r>
       <r>   -6.5571    1.0000 </r>
       <r>   -6.0045    1.0000 </r>
       <r>   -5.9002    1.0000 </r>
       <r>   -3.5267    1.0000 </r>
       <r>   -3.5266    1.0000 </r>
       <r>   -2.0047    0.0000 </r>
       <r>   -2.0047    0.0000 </r>
       <r>    0.5917    0.0000 </r>
       <r>    0.8750    0.0000 </r>
       <r>    1.3853    0.0000 </r>
       <r>    1.4734    0.0000 </r>
       <r>    1.4736    0.0000 </r>
       <r>    1.7081    0.0000 </r>
       <r>    2.6303    0.0000 </r>
       <r>    2.7607    0.0000 </r>
      </set>
      <set comment="kpoint 4">
       <r>  -22.0417    1.0000 </r>
       <r>  -20.9265    1.0000 </r>
       <r>  -20.1926    1.0000 </r>
       <r>  -20.1926    1.0000 </r>
       <r>  -18.7553    1.0000 </r>
       <r>  -18.7552    1.0000 </r>
       <r>  -18.0629    1.0000 </r>
       <r>  -16.7451    1.0000 </r>
       <r>  -16.7451    1.0000 </r>
       <r>  -14.7530    1.0000 </r>
       <r>  -14.6244    1.0000 </r>
       <r>  -14.6243    1.0000 </r>
       <r>  -13.4994    1.0000 </r>
       <r>  -13.4993    1.0000 </r>
       <r>  -12.1837    1.0000 </r>
       <r>  -12.1837    1.0000 </r>
       <r>  -11.0980    1.0000 </r>
       <r>  -11.0979    1.0000 </r>
       <r>  -10.1046    1.0000 </r>
       <r>   -9.8600    1.0000 </r>
       <r>   -9.4951    1.0000 </r>
       <r>   -9.4950    1.0000 </r>
       <r>   -9.0380    1.0000 </r>
       <r>   -8.7935    1.0000 </r>
       <r>   -8.7611    1.0000 </r>
       <r>   -8.7591    1.0000 </r>
       <r>   -7.9450    1.0000 </r>
       <r>   -7.9446    1.0000 </r>
       <r>   -7.6710    1.0000 </r>
       <r>   -6.6226    1.0000 </r>
       <r>   -6.3779    1.0000 </r>
       <r>   -6.3773    1.0000 </r>
       <r>   -6.2164    1.0000 </r>
       <r>   -5.7648    1.0000 </r>
       <r>   -4.2990    1.0000 </r>
       <r>   -4.2989    1.0000 </r>
       <r>   -1.2829    0.0000 </r>
       <r>   -1.2828    0.0000 </r>
       <r>   -0.2381    0.0000 </r>
       <r>    0.7830    0.0000 </r>
       <r>    0.7876    0.0000 </r>
       <r>    0.8145    0.0000 </r>
       <r>    1.6060    0.0000 </r>
       <r>    1.9315    0.0000 </r>
       <r>    2.3338    0.0000 </r>
       <r>    2.8516    0.0000 </r>
      </set>
      <set comment="kpoint 5">
       <r>  -22.0417    1.0000 </r>
       <r>  -20.9265    1.0000 </r>
       <r>  -20.1926    1.0000 </r>
       <r>  -20.1926    1.0000 </r>
       <r>  -18.7553    1.0000 </r>
       <r>  -18.7552    1.0000 </r>
       <r>  -18.0629    1.0000 </r>
       <r>  -16.7451    1.0000 </r>
       <r>  -16.7451    1.0000 </r>
       <r>  -14.7530    1.0000 </r>
       <r>  -14.6244    1.0000 </r>
       <r>  -14.6243    1.0000 </r>
       <r>  -13.4993    1.0000 </r>
       <r>  -13.4993    1.0000 </r>
       <r>  -12.1838    1.0000 </r>
       <r>  -12.1837    1.0000 </r>
       <r>  -11.0980    1.0000 </r>
       <r>  -11.0979    1.0000 </r>
       <r>  -10.1047    1.0000 </r>
       <r>   -9.8599    1.0000 </r>
       <r>   -9.4951    1.0000 </r>
       <r>   -9.4950    1.0000 </r>
       <r>   -9.0380    1.0000 </r>
       <r>   -8.7924    1.0000 </r>
       <r>   -8.7611    1.0000 </r>
       <r>   -8.7604    1.0000 </r>
       <r>   -7.9447    1.0000 </r>
       <r>   -7.9446    1.0000 </r>
       <r>   -7.6712    1.0000 </r>
       <r>   -6.6226    1.0000 </r>
       <r>   -6.3776    1.0000 </r>
       <r>   -6.3774    1.0000 </r>
       <r>   -6.2167    1.0000 </r>
       <r>   -5.7648    1.0000 </r>
       <r>   -4.2990    1.0000 </r>
       <r>   -4.2989    1.0000 </r>
       <r>   -1.2829    0.0000 </r>
       <r>   -1.2829    0.0000 </r>
       <r>   -0.2382    0.0000 </r>
       <r>    0.7857    0.0000 </r>
       <r>    0.7875    0.0000 </r>
       <r>    0.8121    0.0000 </r>
       <r>    1.6060    0.0000 </r>
       <r>    1.9315    0.0000 </r>
       <r>    2.3339    0.0000 </r>
       <r>    2.8516    0.0000 </r>
      </set>
      <set comment="kpoint 6">
       <r>  -21.7748    1.0000 </r>
       <r>  -21.4026    1.0000 </r>
       <r>  -20.2972    1.0000 </r>
       <r>  -20.2972    1.0000 </r>
       <r>  -18.1581    1.0000 </r>
       <r>  -18.1581    1.0000 </r>
       <r>  -17.4813    1.0000 </r>
       <r>  -17.4813    1.0000 </r>
       <r>  -17.2288    1.0000 </r>
       <r>  -15.7456    1.0000 </r>
       <r>  -14.3221    1.0000 </r>
       <r>  -14.3221    1.0000 </r>
       <r>  -13.9510    1.0000 </r>
       <r>  -13.9510    1.0000 </r>
       <r>  -11.2585    1.0000 </r>
       <r>  -11.2585    1.0000 </r>
       <r>  -10.5972    1.0000 </r>
       <r>  -10.5972    1.0000 </r>
       <r>  -10.3278    1.0000 </r>
       <r>  -10.3277    1.0000 </r>
       <r>   -9.7876    1.0000 </r>
       <r>   -9.3484    1.0000 </r>
       <r>   -9.1439    1.0000 </r>
       <r>   -9.0903    1.0000 </r>
       <r>   -9.0900    1.0000 </r>
       <r>   -8.6462    1.0000 </r>
       <r>   -8.0612    1.0000 </r>
       <r>   -8.0610    1.0000 </r>
       <r>   -7.5384    1.0000 </r>
       <r>   -7.1687    1.0000 </r>
       <r>   -6.6645    1.0000 </r>
       <r>   -5.7469    1.0000 </r>
       <r>   -5.7469    1.0000 </r>
       <r>   -5.1980    1.0000 </r>
       <r>   -5.0472    1.0000 </r>
       <r>   -5.0472    1.0000 </r>
       <r>   -0.9701    0.0000 </r>
       <r>   -0.5850    0.0000 </r>
       <r>   -0.5849    0.0000 </r>
       <r>    0.1015    0.0000 </r>
       <r>    0.1017    0.0000 </r>
       <r>    1.1734    0.0000 </r>
       <r>    1.6815    0.0000 </r>
       <r>    1.9734    0.0000 </r>
       <r>    2.3039    0.0000 </r>
       <r>    2.4865    0.0000 </r>
      </set>
      <set comment="kpoint 7">
       <r>  -21.7748    1.0000 </r>
       <r>  -21.4026    1.0000 </r>
       <r>  -20.2972    1.0000 </r>
       <r>  -20.2972    1.0000 </r>
       <r>  -18.1581    1.0000 </r>
       <r>  -18.1580    1.0000 </r>
       <r>  -17.4813    1.0000 </r>
       <r>  -17.4813    1.0000 </r>
       <r>  -17.2288    1.0000 </r>
       <r>  -15.7456    1.0000 </r>
       <r>  -14.3221    1.0000 </r>
       <r>  -14.3221    1.0000 </r>
       <r>  -13.9510    1.0000 </r>
       <r>  -13.9510    1.0000 </r>
       <r>  -11.2586    1.0000 </r>
       <r>  -11.2585    1.0000 </r>
       <r>  -10.5972    1.0000 </r>
       <r>  -10.5972    1.0000 </r>
       <r>  -10.3278    1.0000 </r>
       <r>  -10.3277    1.0000 </r>
       <r>   -9.7877    1.0000 </r>
       <r>   -9.3483    1.0000 </r>
       <r>   -9.1438    1.0000 </r>
       <r>   -9.0903    1.0000 </r>
       <r>   -9.0903    1.0000 </r>
       <r>   -8.6461    1.0000 </r>
       <r>   -8.0611    1.0000 </r>
       <r>   -8.0611    1.0000 </r>
       <r>   -7.5384    1.0000 </r>
       <r>   -7.1687    1.0000 </r>
       <r>   -6.6644    1.0000 </r>
       <r>   -5.7470    1.0000 </r>
       <r>   -5.7469    1.0000 </r>
       <r>   -5.1980    1.0000 </r>
       <r>   -5.0473    1.0000 </r>
       <r>   -5.0472    1.0000 </r>
       <r>   -0.9702    0.0000 </r>
       <r>   -0.5849    0.0000 </r>
       <r>   -0.5849    0.0000 </r>
       <r>    0.1016    0.0000 </r>
       <r>    0.1017    0.0000 </r>
       <r>    1.1734    0.0000 </r>
       <r>    1.6815    0.0000 </r>
       <r>    1.9734    0.0000 </r>
       <r>    2.3039    0.0000 </r>
       <r>    2.4864    0.0000 </r>
      </set>
      <set comment="kpoint 8">
       <r>  -22.0952    1.0000 </r>
       <r>  -20.6109    1.0000 </r>
       <r>  -20.6108    1.0000 </r>
       <r>  -19.5193    1.0000 </r>
       <r>  -19.5193    1.0000 </r>
       <r>  -18.4549    1.0000 </r>
       <r>  -18.4548    1.0000 </r>
       <r>  -16.7786    1.0000 </r>
       <r>  -16.1617    1.0000 </r>
       <r>  -15.2403    1.0000 </r>
       <r>  -14.2549    1.0000 </r>
       <r>  -14.1585    1.0000 </r>
       <r>  -14.1585    1.0000 </r>
       <r>  -12.6046    1.0000 </r>
       <r>  -12.3071    1.0000 </r>
       <r>  -12.3070    1.0000 </r>
       <r>  -12.2711    1.0000 </r>
       <r>  -10.4865    1.0000 </r>
       <r>  -10.4864    1.0000 </r>
       <r>  -10.1681    1.0000 </r>
       <r>   -9.1765    1.0000 </r>
       <r>   -9.1764    1.0000 </r>
       <r>   -9.1236    1.0000 </r>
       <r>   -9.1235    1.0000 </r>
       <r>   -8.4260    1.0000 </r>
       <r>   -8.4259    1.0000 </r>
       <r>   -8.0747    1.0000 </r>
       <r>   -8.0746    1.0000 </r>
       <r>   -7.1908    1.0000 </r>
       <r>   -7.1907    1.0000 </r>
       <r>   -6.4087    1.0000 </r>
       <r>   -6.1327    1.0000 </r>
       <r>   -6.1042    1.0000 </r>
       <r>   -6.1033    1.0000 </r>
       <r>   -4.2578    1.0000 </r>
       <r>   -3.8994    1.0000 </r>
       <r>   -1.7105    0.0000 </r>
       <r>   -1.2653    0.0000 </r>
       <r>    0.2725    0.0000 </r>
       <r>    0.2729    0.0000 </r>
       <r>    0.7376    0.0000 </r>
       <r>    1.5324    0.0000 </r>
       <r>    1.8570    0.0000 </r>
       <r>    2.0112    0.0000 </r>
       <r>    2.0116    0.0000 </r>
       <r>    2.7778    0.0000 </r>
      </set>
      <set comment="kpoint 9">
       <r>  -22.0952    1.0000 </r>
       <r>  -20.6109    1.0000 </r>
       <r>  -20.6108    1.0000 </r>
       <r>  -19.5193    1.0000 </r>
       <r>  -19.5193    1.0000 </r>
       <r>  -18.4549    1.0000 </r>
       <r>  -18.4548    1.0000 </r>
       <r>  -16.7786    1.0000 </r>
       <r>  -16.1617    1.0000 </r>
       <r>  -15.2403    1.0000 </r>
       <r>  -14.2549    1.0000 </r>
       <r>  -14.1586    1.0000 </r>
       <r>  -14.1585    1.0000 </r>
       <r>  -12.6046    1.0000 </r>
       <r>  -12.3072    1.0000 </r>
       <r>  -12.3070    1.0000 </r>
       <r>  -12.2711    1.0000 </r>
       <r>  -10.4864    1.0000 </r>
       <r>  -10.4863    1.0000 </r>
       <r>  -10.1682    1.0000 </r>
       <r>   -9.1765    1.0000 </r>
       <r>   -9.1763    1.0000 </r>
       <r>   -9.1237    1.0000 </r>
       <r>   -9.1235    1.0000 </r>
       <r>   -8.4261    1.0000 </r>
       <r>   -8.4260    1.0000 </r>
       <r>   -8.0745    1.0000 </r>
       <r>   -8.0745    1.0000 </r>
       <r>   -7.1909    1.0000 </r>
       <r>   -7.1908    1.0000 </r>
       <r>   -6.4085    1.0000 </r>
       <r>   -6.1320    1.0000 </r>
       <r>   -6.1042    1.0000 </r>
       <r>   -6.1040    1.0000 </r>
       <r>   -4.2578    1.0000 </r>
       <r>   -3.8994    1.0000 </r>
       <r>   -1.7106    0.0000 </r>
       <r>   -1.2653    0.0000 </r>
       <r>    0.2726    0.0000 </r>
       <r>    0.2730    0.0000 </r>
       <r>    0.7374    0.0000 </r>
       <r>    1.5324    0.0000 </r>
       <r>    1.8569    0.0000 </r>
       <r>    2.0112    0.0000 </r>
       <r>    2.0117    0.0000 </r>
       <r>    2.7778    0.0000 </r>
      </set>
      <set comment="kpoint 10">
       <r>  -21.8815    1.0000 </r>
       <r>  -21.1378    1.0000 </r>
       <r>  -20.7687    1.0000 </r>
       <r>  -19.6743    1.0000 </r>
       <r>  -18.9580    1.0000 </r>
       <r>  -17.9165    1.0000 </r>
       <r>  -17.5935    1.0000 </r>
       <r>  -17.5729    1.0000 </r>
       <r>  -16.6711    1.0000 </r>
       <r>  -15.2537    1.0000 </r>
       <r>  -15.2500    1.0000 </r>
       <r>  -14.6349    1.0000 </r>
       <r>  -13.7272    1.0000 </r>
       <r>  -12.8210    1.0000 </r>
       <r>  -11.8986    1.0000 </r>
       <r>  -11.6826    1.0000 </r>
       <r>  -11.3888    1.0000 </r>
       <r>  -10.0394    1.0000 </r>
       <r>   -9.9217    1.0000 </r>
       <r>   -9.9089    1.0000 </r>
       <r>   -9.7107    1.0000 </r>
       <r>   -9.6302    1.0000 </r>
       <r>   -9.2825    1.0000 </r>
       <r>   -9.2645    1.0000 </r>
       <r>   -9.0373    1.0000 </r>
       <r>   -8.6067    1.0000 </r>
       <r>   -8.2587    1.0000 </r>
       <r>   -7.5792    1.0000 </r>
       <r>   -7.3538    1.0000 </r>
       <r>   -7.1428    1.0000 </r>
       <r>   -6.5684    1.0000 </r>
       <r>   -6.5460    1.0000 </r>
       <r>   -5.5814    1.0000 </r>
       <r>   -5.3855    1.0000 </r>
       <r>   -5.0742    1.0000 </r>
       <r>   -4.4329    1.0000 </r>
       <r>   -1.2967    0.0000 </r>
       <r>   -0.6853    0.0000 </r>
       <r>   -0.4251    0.0000 </r>
       <r>   -0.2986    0.0000 </r>
       <r>    1.0280    0.0000 </r>
       <r>    1.2241    0.0000 </r>
       <r>    1.8265    0.0000 </r>
       <r>    2.0443    0.0000 </r>
       <r>    2.1550    0.0000 </r>
       <r>    2.4026    0.0000 </r>
      </set>
      <set comment="kpoint 11">
       <r>  -21.8815    1.0000 </r>
       <r>  -21.1378    1.0000 </r>
       <r>  -20.7687    1.0000 </r>
       <r>  -19.6743    1.0000 </r>
       <r>  -18.9580    1.0000 </r>
       <r>  -17.9165    1.0000 </r>
       <r>  -17.5935    1.0000 </r>
       <r>  -17.5729    1.0000 </r>
       <r>  -16.6711    1.0000 </r>
       <r>  -15.2537    1.0000 </r>
       <r>  -15.2500    1.0000 </r>
       <r>  -14.6348    1.0000 </r>
       <r>  -13.7272    1.0000 </r>
       <r>  -12.8210    1.0000 </r>
       <r>  -11.8986    1.0000 </r>
       <r>  -11.6826    1.0000 </r>
       <r>  -11.3888    1.0000 </r>
       <r>  -10.0394    1.0000 </r>
       <r>   -9.9187    1.0000 </r>
       <r>   -9.9120    1.0000 </r>
       <r>   -9.7107    1.0000 </r>
       <r>   -9.6302    1.0000 </r>
       <r>   -9.2824    1.0000 </r>
       <r>   -9.2644    1.0000 </r>
       <r>   -9.0374    1.0000 </r>
       <r>   -8.6066    1.0000 </r>
       <r>   -8.2588    1.0000 </r>
       <r>   -7.5789    1.0000 </r>
       <r>   -7.3540    1.0000 </r>
       <r>   -7.1428    1.0000 </r>
       <r>   -6.5684    1.0000 </r>
       <r>   -6.5459    1.0000 </r>
       <r>   -5.5814    1.0000 </r>
       <r>   -5.3854    1.0000 </r>
       <r>   -5.0742    1.0000 </r>
       <r>   -4.4329    1.0000 </r>
       <r>   -1.2967    0.0000 </r>
       <r>   -0.6854    0.0000 </r>
       <r>   -0.4250    0.0000 </r>
       <r>   -0.2985    0.0000 </r>
       <r>    1.0280    0.0000 </r>
       <r>    1.2241    0.0000 </r>
       <r>    1.8265    0.0000 </r>
       <r>    2.0445    0.0000 </r>
       <r>    2.1550    0.0000 </r>
       <r>    2.4024    0.0000 </r>
      </set>
      <set comment="kpoint 12">
       <r>  -21.8815    1.0000 </r>
       <r>  -21.1378    1.0000 </r>
       <r>  -20.7687    1.0000 </r>
       <r>  -19.6743    1.0000 </r>
       <r>  -18.9580    1.0000 </r>
       <r>  -17.9165    1.0000 </r>
       <r>  -17.5935    1.0000 </r>
       <r>  -17.5729    1.0000 </r>
       <r>  -16.6711    1.0000 </r>
       <r>  -15.2537    1.0000 </r>
       <r>  -15.2500    1.0000 </r>
       <r>  -14.6348    1.0000 </r>
       <r>  -13.7272    1.0000 </r>
       <r>  -12.8210    1.0000 </r>
       <r>  -11.8986    1.0000 </r>
       <r>  -11.6826    1.0000 </r>
       <r>  -11.3888    1.0000 </r>
       <r>  -10.0394    1.0000 </r>
       <r>   -9.9187    1.0000 </r>
       <r>   -9.9119    1.0000 </r>
       <r>   -9.7107    1.0000 </r>
       <r>   -9.6301    1.0000 </r>
       <r>   -9.2825    1.0000 </r>
       <r>   -9.2645    1.0000 </r>
       <r>   -9.0374    1.0000 </r>
       <r>   -8.6067    1.0000 </r>
       <r>   -8.2587    1.0000 </r>
       <r>   -7.5789    1.0000 </r>
       <r>   -7.3541    1.0000 </r>
       <r>   -7.1428    1.0000 </r>
       <r>   -6.5708    1.0000 </r>
       <r>   -6.5434    1.0000 </r>
       <r>   -5.5814    1.0000 </r>
       <r>   -5.3855    1.0000 </r>
       <r>   -5.0742    1.0000 </r>
       <r>   -4.4328    1.0000 </r>
       <r>   -1.2967    0.0000 </r>
       <r>   -0.6853    0.0000 </r>
       <r>   -0.4250    0.0000 </r>
       <r>   -0.2985    0.0000 </r>
       <r>    1.0275    0.0000 </r>
       <r>    1.2245    0.0000 </r>
       <r>    1.8265    0.0000 </r>
       <r>    2.0444    0.0000 </r>
       <r>    2.1549    0.0000 </r>
       <r>    2.4025    0.0000 </r>
      </set>
      <set comment="kpoint 13">
       <r>  -21.5620    1.0000 </r>
       <r>  -21.5619    1.0000 </r>
       <r>  -20.8213    1.0000 </r>
       <r>  -19.7261    1.0000 </r>
       <r>  -18.3060    1.0000 </r>
       <r>  -18.3059    1.0000 </r>
       <r>  -17.3075    1.0000 </r>
       <r>  -17.3074    1.0000 </r>
       <r>  -16.9870    1.0000 </r>
       <r>  -15.9390    1.0000 </r>
       <r>  -15.0096    1.0000 </r>
       <r>  -15.0096    1.0000 </r>
       <r>  -13.2819    1.0000 </r>
       <r>  -13.2819    1.0000 </r>
       <r>  -11.3580    1.0000 </r>
       <r>  -10.9878    1.0000 </r>
       <r>  -10.9877    1.0000 </r>
       <r>  -10.4999    1.0000 </r>
       <r>  -10.4998    1.0000 </r>
       <r>   -9.9053    1.0000 </r>
       <r>   -9.6353    1.0000 </r>
       <r>   -9.5358    1.0000 </r>
       <r>   -9.5354    1.0000 </r>
       <r>   -9.3359    1.0000 </r>
       <r>   -8.6672    1.0000 </r>
       <r>   -8.4185    1.0000 </r>
       <r>   -8.1249    1.0000 </r>
       <r>   -8.1248    1.0000 </r>
       <r>   -7.4093    1.0000 </r>
       <r>   -7.0534    1.0000 </r>
       <r>   -7.0531    1.0000 </r>
       <r>   -5.8557    1.0000 </r>
       <r>   -5.8556    1.0000 </r>
       <r>   -5.0628    1.0000 </r>
       <r>   -5.0124    1.0000 </r>
       <r>   -5.0124    1.0000 </r>
       <r>   -1.0893    0.0000 </r>
       <r>   -0.8234    0.0000 </r>
       <r>   -0.8233    0.0000 </r>
       <r>    0.4102    0.0000 </r>
       <r>    0.4104    0.0000 </r>
       <r>    1.4639    0.0000 </r>
       <r>    1.4641    0.0000 </r>
       <r>    2.2669    0.0000 </r>
       <r>    2.2670    0.0000 </r>
       <r>    2.6018    0.0000 </r>
      </set>
      <set comment="kpoint 14">
       <r>  -21.5620    1.0000 </r>
       <r>  -21.5619    1.0000 </r>
       <r>  -20.8213    1.0000 </r>
       <r>  -19.7261    1.0000 </r>
       <r>  -18.3060    1.0000 </r>
       <r>  -18.3059    1.0000 </r>
       <r>  -17.3075    1.0000 </r>
       <r>  -17.3074    1.0000 </r>
       <r>  -16.9870    1.0000 </r>
       <r>  -15.9390    1.0000 </r>
       <r>  -15.0097    1.0000 </r>
       <r>  -15.0095    1.0000 </r>
       <r>  -13.2820    1.0000 </r>
       <r>  -13.2818    1.0000 </r>
       <r>  -11.3579    1.0000 </r>
       <r>  -10.9878    1.0000 </r>
       <r>  -10.9877    1.0000 </r>
       <r>  -10.5000    1.0000 </r>
       <r>  -10.4998    1.0000 </r>
       <r>   -9.9053    1.0000 </r>
       <r>   -9.6351    1.0000 </r>
       <r>   -9.5359    1.0000 </r>
       <r>   -9.5356    1.0000 </r>
       <r>   -9.3359    1.0000 </r>
       <r>   -8.6671    1.0000 </r>
       <r>   -8.4185    1.0000 </r>
       <r>   -8.1249    1.0000 </r>
       <r>   -8.1248    1.0000 </r>
       <r>   -7.4091    1.0000 </r>
       <r>   -7.0535    1.0000 </r>
       <r>   -7.0531    1.0000 </r>
       <r>   -5.8557    1.0000 </r>
       <r>   -5.8556    1.0000 </r>
       <r>   -5.0628    1.0000 </r>
       <r>   -5.0124    1.0000 </r>
       <r>   -5.0124    1.0000 </r>
       <r>   -1.0893    0.0000 </r>
       <r>   -0.8234    0.0000 </r>
       <r>   -0.8232    0.0000 </r>
       <r>    0.4101    0.0000 </r>
       <r>    0.4106    0.0000 </r>
       <r>    1.4640    0.0000 </r>
       <r>    1.4640    0.0000 </r>
       <r>    2.2669    0.0000 </r>
       <r>    2.2669    0.0000 </r>
       <r>    2.6016    0.0000 </r>
      </set>
      <set comment="kpoint 15">
       <r>  -21.6151    1.0000 </r>
       <r>  -21.2437    1.0000 </r>
       <r>  -21.2436    1.0000 </r>
       <r>  -19.0600    1.0000 </r>
       <r>  -19.0599    1.0000 </r>
       <r>  -18.3556    1.0000 </r>
       <r>  -17.0888    1.0000 </r>
       <r>  -17.0887    1.0000 </r>
       <r>  -16.7115    1.0000 </r>
       <r>  -15.6765    1.0000 </r>
       <r>  -15.6143    1.0000 </r>
       <r>  -15.6142    1.0000 </r>
       <r>  -12.9180    1.0000 </r>
       <r>  -12.2633    1.0000 </r>
       <r>  -12.2632    1.0000 </r>
       <r>  -11.3540    1.0000 </r>
       <r>  -10.5572    1.0000 </r>
       <r>  -10.5493    1.0000 </r>
       <r>  -10.5492    1.0000 </r>
       <r>   -9.8195    1.0000 </r>
       <r>   -9.8194    1.0000 </r>
       <r>   -9.5986    1.0000 </r>
       <r>   -9.1610    1.0000 </r>
       <r>   -9.1609    1.0000 </r>
       <r>   -8.8219    1.0000 </r>
       <r>   -8.8218    1.0000 </r>
       <r>   -7.8828    1.0000 </r>
       <r>   -7.6861    1.0000 </r>
       <r>   -7.6860    1.0000 </r>
       <r>   -7.0825    1.0000 </r>
       <r>   -6.6646    1.0000 </r>
       <r>   -6.6645    1.0000 </r>
       <r>   -5.8934    1.0000 </r>
       <r>   -5.0051    1.0000 </r>
       <r>   -5.0051    1.0000 </r>
       <r>   -4.6730    1.0000 </r>
       <r>   -1.2278    0.0000 </r>
       <r>   -1.0248    0.0000 </r>
       <r>   -1.0247    0.0000 </r>
       <r>    0.5279    0.0000 </r>
       <r>    1.3910    0.0000 </r>
       <r>    1.4817    0.0000 </r>
       <r>    1.4826    0.0000 </r>
       <r>    1.9001    0.0000 </r>
       <r>    1.9003    0.0000 </r>
       <r>    2.1937    0.0000 </r>
      </set>
      <set comment="kpoint 16">
       <r>  -21.6151    1.0000 </r>
       <r>  -21.2437    1.0000 </r>
       <r>  -21.2436    1.0000 </r>
       <r>  -19.0600    1.0000 </r>
       <r>  -19.0599    1.0000 </r>
       <r>  -18.3556    1.0000 </r>
       <r>  -17.0888    1.0000 </r>
       <r>  -17.0887    1.0000 </r>
       <r>  -16.7115    1.0000 </r>
       <r>  -15.6765    1.0000 </r>
       <r>  -15.6143    1.0000 </r>
       <r>  -15.6142    1.0000 </r>
       <r>  -12.9180    1.0000 </r>
       <r>  -12.2633    1.0000 </r>
       <r>  -12.2632    1.0000 </r>
       <r>  -11.3540    1.0000 </r>
       <r>  -10.5572    1.0000 </r>
       <r>  -10.5494    1.0000 </r>
       <r>  -10.5491    1.0000 </r>
       <r>   -9.8195    1.0000 </r>
       <r>   -9.8194    1.0000 </r>
       <r>   -9.5985    1.0000 </r>
       <r>   -9.1612    1.0000 </r>
       <r>   -9.1609    1.0000 </r>
       <r>   -8.8219    1.0000 </r>
       <r>   -8.8218    1.0000 </r>
       <r>   -7.8828    1.0000 </r>
       <r>   -7.6861    1.0000 </r>
       <r>   -7.6860    1.0000 </r>
       <r>   -7.0828    1.0000 </r>
       <r>   -6.6647    1.0000 </r>
       <r>   -6.6642    1.0000 </r>
       <r>   -5.8934    1.0000 </r>
       <r>   -5.0051    1.0000 </r>
       <r>   -5.0051    1.0000 </r>
       <r>   -4.6730    1.0000 </r>
       <r>   -1.2278    0.0000 </r>
       <r>   -1.0248    0.0000 </r>
       <r>   -1.0246    0.0000 </r>
       <r>    0.5280    0.0000 </r>
       <r>    1.3893    0.0000 </r>
       <r>    1.4823    0.0000 </r>
       <r>    1.4839    0.0000 </r>
       <r>    1.9000    0.0000 </r>
       <r>    1.9002    0.0000 </r>
       <r>    2.1937    0.0000 </r>
      </set>
     </set>
    </set>
   </array>
  </eigenvalues>
  <separator name="orbital magnetization" >
   <v name="MAGDIPOLOUT">      0.00000000      0.00000000      0.00000000</v>
  </separator>
  <dos>
   <i name="efermi">     -2.75531915 </i>
   <total>
    <array>
     <dimension dim="1">gridpoints</dimension>
     <dimension dim="2">spin</dimension>
     <field>energy</field>
     <field>total</field>
     <field>integrated</field>
     <set>
      <set comment="spin 1">
       <r>   -23.5112     0.0000     0.0000 </r>
       <r>   -23.4191     0.0000     0.0000 </r>
       <r>   -23.3271     0.0000     0.0000 </r>
       <r>   -23.2350     0.0000     0.0000 </r>
       <r>   -23.1429     0.0000     0.0000 </r>
       <r>   -23.0509     0.0000     0.0000 </r>
       <r>   -22.9588     0.0000     0.0000 </r>
       <r>   -22.8668     0.0000     0.0000 </r>
       <r>   -22.7747     0.0000     0.0000 </r>
       <r>   -22.6826     0.0000     0.0000 </r>
       <r>   -22.5906     0.0000     0.0000 </r>
       <r>   -22.4985     0.0000     0.0000 </r>
       <r>   -22.4065     0.0000     0.0000 </r>
       <r>   -22.3144     0.0236     0.0022 </r>
       <r>   -22.2223     1.1016     0.1036 </r>
       <r>   -22.1303     2.3657     0.3214 </r>
       <r>   -22.0382     3.5650     0.6496 </r>
       <r>   -21.9462     1.5381     0.7912 </r>
       <r>   -21.8541     4.0172     1.1610 </r>
       <r>   -21.7620     2.8373     1.4222 </r>
       <r>   -21.6700     1.1185     1.5252 </r>
       <r>   -21.5779     3.8405     1.8787 </r>
       <r>   -21.4858     3.9182     2.2394 </r>
       <r>   -21.3938     1.6512     2.3915 </r>
       <r>   -21.3017     1.3294     2.5138 </r>
       <r>   -21.2097     4.2750     2.9074 </r>
       <r>   -21.1176     4.5906     3.3300 </r>
       <r>   -21.0255     1.5168     3.4696 </r>
       <r>   -20.9335     1.1205     3.5728 </r>
       <r>   -20.8414     2.3791     3.7918 </r>
       <r>   -20.7494     5.5267     4.3006 </r>
       <r>   -20.6573     2.1101     4.4949 </r>
       <r>   -20.5652     4.2980     4.8905 </r>
       <r>   -20.4732     0.5243     4.9388 </r>
       <r>   -20.3811     0.5265     4.9873 </r>
       <r>   -20.2891     5.1724     5.4634 </r>
       <r>   -20.1970     4.6653     5.8929 </r>
       <r>   -20.1049     2.9030     6.1602 </r>
       <r>   -20.0129     1.1397     6.2651 </r>
       <r>   -19.9208     4.0187     6.6351 </r>
       <r>   -19.8288     0.2002     6.6535 </r>
       <r>   -19.7367     1.3155     6.7746 </r>
       <r>   -19.6446     7.6696     7.4807 </r>
       <r>   -19.5526     2.5696     7.7172 </r>
       <r>   -19.4605     4.1448     8.0988 </r>
       <r>   -19.3685     0.2638     8.1231 </r>
       <r>   -19.2764     1.8332     8.2919 </r>
       <r>   -19.1843     3.4086     8.6057 </r>
       <r>   -19.0923     1.0315     8.7006 </r>
       <r>   -19.0002     4.7458     9.1375 </r>
       <r>   -18.9082     5.7807     9.6697 </r>
       <r>   -18.8161     2.0263     9.8562 </r>
       <r>   -18.7240     4.1042    10.2341 </r>
       <r>   -18.6320     1.0030    10.3264 </r>
       <r>   -18.5399     0.0442    10.3305 </r>
       <r>   -18.4479     3.0465    10.6109 </r>
       <r>   -18.3558     3.9634    10.9758 </r>
       <r>   -18.2637     5.6247    11.4936 </r>
       <r>   -18.1717     2.4892    11.7228 </r>
       <r>   -18.0796     4.2300    12.1122 </r>
       <r>   -17.9876     1.9593    12.2926 </r>
       <r>   -17.8955     3.7781    12.6404 </r>
       <r>   -17.8034     1.4641    12.7752 </r>
       <r>   -17.7114     0.0062    12.7757 </r>
       <r>   -17.6193     1.7375    12.9357 </r>
       <r>   -17.5273     8.7301    13.7394 </r>
       <r>   -17.4352     4.9800    14.1979 </r>
       <r>   -17.3431     1.3449    14.3217 </r>
       <r>   -17.2511     4.8958    14.7724 </r>
       <r>   -17.1590     2.3114    14.9852 </r>
       <r>   -17.0669     3.8623    15.3407 </r>
       <r>   -16.9749     3.0798    15.6243 </r>
       <r>   -16.8828     0.9781    15.7143 </r>
       <r>   -16.7908     1.5299    15.8552 </r>
       <r>   -16.6987     8.7764    16.6631 </r>
       <r>   -16.6066     5.4686    17.1666 </r>
       <r>   -16.5146     0.1860    17.1837 </r>
       <r>   -16.4225     0.0000    17.1837 </r>
       <r>   -16.3305     0.0000    17.1837 </r>
       <r>   -16.2384     0.0399    17.1873 </r>
       <r>   -16.1463     1.7365    17.3472 </r>
       <r>   -16.0543     1.1340    17.4516 </r>
       <r>   -15.9622     4.8171    17.8951 </r>
       <r>   -15.8702     2.8443    18.1569 </r>
       <r>   -15.7781     0.5506    18.2076 </r>
       <r>   -15.6860     3.2154    18.5036 </r>
       <r>   -15.5940     5.4099    19.0017 </r>
       <r>   -15.5019     1.5298    19.1425 </r>
       <r>   -15.4099     0.0486    19.1470 </r>
       <r>   -15.3178     1.6395    19.2979 </r>
       <r>   -15.2257    10.0315    20.2214 </r>
       <r>   -15.1337     3.3520    20.5300 </r>
       <r>   -15.0416     0.9791    20.6201 </r>
       <r>   -14.9496     4.9168    21.0728 </r>
       <r>   -14.8575     4.4487    21.4823 </r>
       <r>   -14.7654     1.2679    21.5990 </r>
       <r>   -14.6734     2.8369    21.8602 </r>
       <r>   -14.5813     8.5586    22.6481 </r>
       <r>   -14.4893     0.9400    22.7347 </r>
       <r>   -14.3972     0.0900    22.7429 </r>
       <r>   -14.3051     3.7576    23.0889 </r>
       <r>   -14.2131     4.1402    23.4700 </r>
       <r>   -14.1210     4.5452    23.8884 </r>
       <r>   -14.0290     0.8407    23.9658 </r>
       <r>   -13.9369     3.4111    24.2799 </r>
       <r>   -13.8448     1.8322    24.4485 </r>
       <r>   -13.7528     1.2550    24.5641 </r>
       <r>   -13.6607     4.0088    24.9331 </r>
       <r>   -13.5687     2.3025    25.1451 </r>
       <r>   -13.4766     4.3553    25.5460 </r>
       <r>   -13.3845     1.3942    25.6744 </r>
       <r>   -13.2925     2.4384    25.8989 </r>
       <r>   -13.2004     3.6973    26.2392 </r>
       <r>   -13.1084     0.0618    26.2449 </r>
       <r>   -13.0163     0.7541    26.3143 </r>
       <r>   -12.9242     9.5492    27.1934 </r>
       <r>   -12.8322     4.9778    27.6517 </r>
       <r>   -12.7401     3.2814    27.9538 </r>
       <r>   -12.6480     0.3495    27.9860 </r>
       <r>   -12.5560     2.1439    28.1833 </r>
       <r>   -12.4639     0.2407    28.2055 </r>
       <r>   -12.3719     1.5863    28.3515 </r>
       <r>   -12.2798     7.9868    29.0868 </r>
       <r>   -12.1877     8.6785    29.8857 </r>
       <r>   -12.0957     2.9807    30.1601 </r>
       <r>   -12.0036     0.0419    30.1640 </r>
       <r>   -11.9116     1.8902    30.3380 </r>
       <r>   -11.8195     3.4003    30.6510 </r>
       <r>   -11.7274     3.6800    30.9898 </r>
       <r>   -11.6354     6.4857    31.5869 </r>
       <r>   -11.5433     0.4968    31.6326 </r>
       <r>   -11.4513     0.2243    31.6533 </r>
       <r>   -11.3592     6.5019    32.2519 </r>
       <r>   -11.2671     6.0284    32.8068 </r>
       <r>   -11.1751     3.3742    33.1175 </r>
       <r>   -11.0830     5.6066    33.6336 </r>
       <r>   -10.9910     4.6665    34.0632 </r>
       <r>   -10.8989     2.8285    34.3236 </r>
       <r>   -10.8068     0.0319    34.3265 </r>
       <r>   -10.7148     0.0024    34.3267 </r>
       <r>   -10.6227     1.4353    34.4589 </r>
       <r>   -10.5307    11.0898    35.4798 </r>
       <r>   -10.4386    10.7288    36.4675 </r>
       <r>   -10.3465     2.7556    36.7212 </r>
       <r>   -10.2545     5.9482    37.2688 </r>
       <r>   -10.1624     2.0426    37.4568 </r>
       <r>   -10.0704     4.2475    37.8479 </r>
       <r>    -9.9783     4.9965    38.3078 </r>
       <r>    -9.8862    10.8407    39.3058 </r>
       <r>    -9.7942    10.0321    40.2294 </r>
       <r>    -9.7021     6.1701    40.7974 </r>
       <r>    -9.6101     8.8895    41.6158 </r>
       <r>    -9.5180     8.7466    42.4210 </r>
       <r>    -9.4259     5.5369    42.9307 </r>
       <r>    -9.3339     3.7510    43.2760 </r>
       <r>    -9.2418    10.4710    44.2400 </r>
       <r>    -9.1498    11.8979    45.3353 </r>
       <r>    -9.0577    14.9955    46.7158 </r>
       <r>    -8.9656     6.6979    47.3324 </r>
       <r>    -8.8736     2.9075    47.6001 </r>
       <r>    -8.7815    12.7214    48.7712 </r>
       <r>    -8.6895     6.7329    49.3911 </r>
       <r>    -8.5974     7.4053    50.0728 </r>
       <r>    -8.5053     7.1539    50.7314 </r>
       <r>    -8.4133     8.0120    51.4690 </r>
       <r>    -8.3212     3.2974    51.7726 </r>
       <r>    -8.2291     4.0816    52.1483 </r>
       <r>    -8.1371     5.4783    52.6526 </r>
       <r>    -8.0450    13.9549    53.9373 </r>
       <r>    -7.9530     5.1234    54.4090 </r>
       <r>    -7.8609     4.9942    54.8688 </r>
       <r>    -7.7688     1.1259    54.9724 </r>
       <r>    -7.6768     8.5359    55.7582 </r>
       <r>    -7.5847     6.9366    56.3968 </r>
       <r>    -7.4927     5.1690    56.8727 </r>
       <r>    -7.4006     2.8894    57.1387 </r>
       <r>    -7.3085     7.3898    57.8190 </r>
       <r>    -7.2165     2.2112    58.0226 </r>
       <r>    -7.1244    10.1127    58.9535 </r>
       <r>    -7.0324     7.9124    59.6819 </r>
       <r>    -6.9403     3.3256    59.9881 </r>
       <r>    -6.8482     3.5828    60.3179 </r>
       <r>    -6.7562     0.1315    60.3300 </r>
       <r>    -6.6641     4.3316    60.7288 </r>
       <r>    -6.5721    10.5987    61.7045 </r>
       <r>    -6.4800     8.7961    62.5143 </r>
       <r>    -6.3879     4.1432    62.8957 </r>
       <r>    -6.2959     3.9901    63.2631 </r>
       <r>    -6.2038     1.7965    63.4284 </r>
       <r>    -6.1118     4.9947    63.8883 </r>
       <r>    -6.0197     4.7180    64.3226 </r>
       <r>    -5.9276     2.9114    64.5906 </r>
       <r>    -5.8356     7.9604    65.3235 </r>
       <r>    -5.7435     7.1550    65.9822 </r>
       <r>    -5.6515     3.4037    66.2955 </r>
       <r>    -5.5594     3.7954    66.6449 </r>
       <r>    -5.4673     1.4700    66.7802 </r>
       <r>    -5.3753     3.2114    67.0759 </r>
       <r>    -5.2832     2.0686    67.2663 </r>
       <r>    -5.1912     1.5261    67.4068 </r>
       <r>    -5.0991     3.2378    67.7049 </r>
       <r>    -5.0070    15.7268    69.1527 </r>
       <r>    -4.9150     6.0554    69.7102 </r>
       <r>    -4.8229     0.0449    69.7143 </r>
       <r>    -4.7309     0.1355    69.7268 </r>
       <r>    -4.6388     2.0818    69.9184 </r>
       <r>    -4.5467     0.4457    69.9595 </r>
       <r>    -4.4547     1.4258    70.0907 </r>
       <r>    -4.3626     3.9618    70.4554 </r>
       <r>    -4.2706     5.0850    70.9236 </r>
       <r>    -4.1785     2.7907    71.1805 </r>
       <r>    -4.0864     0.0348    71.1837 </r>
       <r>    -3.9944     0.0096    71.1846 </r>
       <r>    -3.9023     1.2330    71.2981 </r>
       <r>    -3.8102     1.4021    71.4271 </r>
       <r>    -3.7182     0.0156    71.4286 </r>
       <r>    -3.6261     0.0130    71.4298 </r>
       <r>    -3.5341     2.2054    71.6328 </r>
       <r>    -3.4420     3.0576    71.9143 </r>
       <r>    -3.3499     0.0443    71.9184 </r>
       <r>    -3.2579     0.0000    71.9184 </r>
       <r>    -3.1658     0.0000    71.9184 </r>
       <r>    -3.0738     0.0000    71.9184 </r>
       <r>    -2.9817     0.0000    71.9184 </r>
       <r>    -2.8896     0.0001    71.9184 </r>
       <r>    -2.7976     0.2055    71.9373 </r>
       <r>    -2.7055     1.4268    72.0687 </r>
       <r>    -2.6135     0.1409    72.0816 </r>
       <r>    -2.5214     0.0001    72.0816 </r>
       <r>    -2.4293     0.0000    72.0816 </r>
       <r>    -2.3373     0.0000    72.0816 </r>
       <r>    -2.2452     0.0000    72.0816 </r>
       <r>    -2.1532     0.0001    72.0816 </r>
       <r>    -2.0611     0.2944    72.1087 </r>
       <r>    -1.9690     4.1930    72.4948 </r>
       <r>    -1.8770     0.8321    72.5714 </r>
       <r>    -1.7849     0.0479    72.5758 </r>
       <r>    -1.6929     1.7927    72.7408 </r>
       <r>    -1.6008     0.8179    72.8161 </r>
       <r>    -1.5087     0.0025    72.8163 </r>
       <r>    -1.4167     0.0023    72.8165 </r>
       <r>    -1.3246     1.9043    72.9918 </r>
       <r>    -1.2326    11.5132    74.0518 </r>
       <r>    -1.1405     2.7220    74.3023 </r>
       <r>    -1.0484     3.5236    74.6267 </r>
       <r>    -0.9564     5.8689    75.1670 </r>
       <r>    -0.8643     1.7193    75.3253 </r>
       <r>    -0.7723     4.3106    75.7221 </r>
       <r>    -0.6802     3.3448    76.0301 </r>
       <r>    -0.5881     4.7851    76.4706 </r>
       <r>    -0.4961     2.9555    76.7427 </r>
       <r>    -0.4040     3.7728    77.0900 </r>
       <r>    -0.3120     3.3793    77.4011 </r>
       <r>    -0.2199     5.1869    77.8786 </r>
       <r>    -0.1278     0.8730    77.9590 </r>
       <r>    -0.0358     0.0027    77.9592 </r>
       <r>     0.0563     0.5314    78.0081 </r>
       <r>     0.1483     4.2945    78.4035 </r>
       <r>     0.2404     1.4534    78.5373 </r>
       <r>     0.3325     4.1925    78.9232 </r>
       <r>     0.4245     3.6657    79.2607 </r>
       <r>     0.5166     3.0636    79.5427 </r>
       <r>     0.6087     3.6491    79.8787 </r>
       <r>     0.7007     1.3131    79.9996 </r>
       <r>     0.7928     5.9077    80.5434 </r>
       <r>     0.8848     5.8475    81.0817 </r>
       <r>     0.9769     1.4996    81.2198 </r>
       <r>     1.0690     4.2802    81.6138 </r>
       <r>     1.1610     1.8095    81.7804 </r>
       <r>     1.2531     5.7056    82.3057 </r>
       <r>     1.3451     2.0894    82.4980 </r>
       <r>     1.4372     6.8959    83.1329 </r>
       <r>     1.5293    14.1551    84.4360 </r>
       <r>     1.6213     4.4161    84.8426 </r>
       <r>     1.7134     4.6983    85.2751 </r>
       <r>     1.8054     3.3376    85.5823 </r>
       <r>     1.8975     8.8490    86.3970 </r>
       <r>     1.9896     8.8262    87.2095 </r>
       <r>     2.0816     9.2014    88.0566 </r>
       <r>     2.1737     7.0075    88.7017 </r>
       <r>     2.2657     6.8800    89.3351 </r>
       <r>     2.3578     7.3558    90.0123 </r>
       <r>     2.4499     5.5497    90.5232 </r>
       <r>     2.5419     2.7228    90.7738 </r>
       <r>     2.6340     3.6389    91.1088 </r>
       <r>     2.7260     2.3211    91.3225 </r>
       <r>     2.8181     4.6808    91.7534 </r>
       <r>     2.9102     2.5483    91.9880 </r>
       <r>     3.0022     0.1299    92.0000 </r>
       <r>     3.0943     0.0000    92.0000 </r>
       <r>     3.1863     0.0000    92.0000 </r>
       <r>     3.2784     0.0000    92.0000 </r>
       <r>     3.3705     0.0000    92.0000 </r>
       <r>     3.4625     0.0000    92.0000 </r>
       <r>     3.5546     0.0000    92.0000 </r>
       <r>     3.6466     0.0000    92.0000 </r>
       <r>     3.7387     0.0000    92.0000 </r>
       <r>     3.8308     0.0000    92.0000 </r>
       <r>     3.9228     0.0000    92.0000 </r>
       <r>     4.0149     0.0000    92.0000 </r>
       <r>     4.1069     0.0000    92.0000 </r>
      </set>
     </set>
    </array>
   </total>
  </dos>
 </calculation>
 <structure name="finalpos" >
  <crystal>
   <varray name="basis" >
    <v>       7.40170591       0.00000000       0.00000000 </v>
    <v>      -3.70085295       6.41006527       0.00000000 </v>
    <v>       0.00000000       0.00000000      20.00000000 </v>
   </varray>
   <i name="volume">    948.90835877 </i>
   <varray name="rec_basis" >
    <v>       0.13510399       0.07800233       0.00000000 </v>
    <v>       0.00000000       0.15600465       0.00000000 </v>
    <v>       0.00000000       0.00000000       0.05000000 </v>
   </varray>
  </crystal>
  <varray name="positions" >
   <v>       0.00000000       0.00000000       0.49950000 </v>
   <v>       0.33333333       0.00000000       0.49950000 </v>
   <v>       0.66666667       0.00000000       0.50000000 </v>
   <v>       0.00000000       0.33333333       0.50000000 </v>
   <v>       0.33333333       0.33333333       0.50000000 </v>
   <v>       0.66666667       0.33333333       0.50000000 </v>
   <v>       0.00000000       0.66666667       0.50000000 </v>
   <v>       0.33333333       0.66666667       0.50000000 </v>
   <v>       0.66666667       0.66666667       0.50000000 </v>
   <v>       0.22222222       0.11111111       0.50000000 </v>
   <v>       0.55555556       0.11111111       0.50000000 </v>
   <v>       0.88888889       0.11111111       0.50000000 </v>
   <v>       0.22222222       0.44444444       0.50000000 </v>
   <v>       0.55555556       0.44444444       0.50000000 </v>
   <v>       0.88888889       0.44444444       0.50000000 </v>
   <v>       0.22222222       0.77777778       0.50000000 </v>
   <v>       0.55555556       0.77777778       0.50000000 </v>
   <v>       0.88888889       0.77777778       0.50000000 </v>
  </varray>
 </structure>
</modeling>
