<?xml version="1.0" encoding="ISO-8859-1"?>
<modeling>
 <generator>
  <i name="program" type="string">vasp </i>
  <i name="version" type="string">6.4.1  </i>
  <i name="subversion" type="string">05Apr23 (build Feb 12 2025 00:37:39) complex                          parallel </i>
  <i name="platform" type="string">LinuxIFC </i>
  <i name="date" type="string">2025 02 14 </i>
  <i name="time" type="string">05:40:24 </i>
 </generator>
 <incar>
  <i type="string" name="SYSTEM">SCF</i>
  <i type="int" name="ISTART">     0</i>
  <i type="int" name="ICHARG">     2</i>
  <i type="int" name="NELM">    60</i>
  <i type="int" name="NELMIN">     6</i>
  <i name="EDIFF">      0.00000100</i>
  <i name="EDIFFG">     -0.00000100</i>
  <i name="ENCUT">    600.00000000</i>
  <i type="string" name="LREAL">Auto</i>
  <i type="int" name="ISMEAR">     0</i>
  <i name="SIGMA">      0.05000000</i>
  <i type="logical" name="LWAVE"> F  </i>
  <i type="logical" name="LCHARG"> F  </i>
 </incar>
 <primitive_cell>
  <structure name="primitive_cell" >
   <crystal>
    <varray name="basis" >
     <v>       7.40170591       0.00000000       0.00000000 </v>
     <v>      -3.70085295       6.41006527       0.00000000 </v>
     <v>       0.00000000       0.00000000      20.00000000 </v>
    </varray>
    <i name="volume">    948.90835877 </i>
    <varray name="rec_basis" >
     <v>       0.13510399       0.07800233       0.00000000 </v>
     <v>       0.00000000       0.15600465       0.00000000 </v>
     <v>       0.00000000       0.00000000       0.05000000 </v>
    </varray>
   </crystal>
   <varray name="positions" >
    <v>       0.99921998       0.99843995       0.49950000 </v>
    <v>       0.33333333       0.00000000       0.50000000 </v>
    <v>       0.66666667       0.00000000       0.50000000 </v>
    <v>       1.00000000       0.33333333       0.50000000 </v>
    <v>       0.33333333       0.33333333       0.50000000 </v>
    <v>       0.66666667       0.33333333       0.50000000 </v>
    <v>       1.00000000       0.66666667       0.50000000 </v>
    <v>       0.33333333       0.66666667       0.50000000 </v>
    <v>       0.66666667       0.66666667       0.50000000 </v>
    <v>       0.22222222       0.11111111       0.50000000 </v>
    <v>       0.55555556       0.11111111       0.50000000 </v>
    <v>       0.88888889       0.11111111       0.50000000 </v>
    <v>       0.22222222       0.44444444       0.50000000 </v>
    <v>       0.55555556       0.44444444       0.50000000 </v>
    <v>       0.88888889       0.44444444       0.50000000 </v>
    <v>       0.22222222       0.77777778       0.50000000 </v>
    <v>       0.55555556       0.77777778       0.50000000 </v>
    <v>       0.88888889       0.77777778       0.50000000 </v>
   </varray>
  </structure>
  <varray name="primitive_index" >
   <v type="int" >        1 </v>
   <v type="int" >        2 </v>
   <v type="int" >        3 </v>
   <v type="int" >        4 </v>
   <v type="int" >        5 </v>
   <v type="int" >        6 </v>
   <v type="int" >        7 </v>
   <v type="int" >        8 </v>
   <v type="int" >        9 </v>
   <v type="int" >       10 </v>
   <v type="int" >       11 </v>
   <v type="int" >       12 </v>
   <v type="int" >       13 </v>
   <v type="int" >       14 </v>
   <v type="int" >       15 </v>
   <v type="int" >       16 </v>
   <v type="int" >       17 </v>
   <v type="int" >       18 </v>
  </varray>
 </primitive_cell>
 <kpoints>
  <generation param="Gamma">
   <v type="int" name="divisions">       7        7        1 </v>
   <v name="usershift">      0.00000000       0.00000000       0.00000000 </v>
   <v name="genvec1">      0.14285714       0.00000000       0.00000000 </v>
   <v name="genvec2">      0.00000000       0.14285714       0.00000000 </v>
   <v name="genvec3">      0.00000000       0.00000000       1.00000000 </v>
   <v name="shift">      0.00000000       0.00000000       0.00000000 </v>
  </generation>
  <varray name="kpointlist" >
   <v>       0.00000000       0.00000000       0.00000000 </v>
   <v>       0.14285714       0.00000000       0.00000000 </v>
   <v>       0.00000000       0.14285714       0.00000000 </v>
   <v>       0.28571429       0.00000000       0.00000000 </v>
   <v>       0.00000000       0.28571429       0.00000000 </v>
   <v>       0.42857143       0.00000000       0.00000000 </v>
   <v>       0.00000000       0.42857143       0.00000000 </v>
   <v>       0.14285714       0.14285714       0.00000000 </v>
   <v>      -0.28571429       0.14285714       0.00000000 </v>
   <v>       0.28571429       0.14285714       0.00000000 </v>
   <v>      -0.14285714       0.42857143       0.00000000 </v>
   <v>      -0.42857143       0.28571429       0.00000000 </v>
   <v>       0.42857143       0.14285714       0.00000000 </v>
   <v>      -0.14285714      -0.42857143       0.00000000 </v>
   <v>       0.28571429       0.28571429       0.00000000 </v>
   <v>       0.42857143       0.28571429       0.00000000 </v>
  </varray>
  <varray name="weights" >
   <v>       0.02040816 </v>
   <v>       0.08163265 </v>
   <v>       0.04081633 </v>
   <v>       0.08163265 </v>
   <v>       0.04081633 </v>
   <v>       0.08163265 </v>
   <v>       0.04081633 </v>
   <v>       0.08163265 </v>
   <v>       0.04081633 </v>
   <v>       0.08163265 </v>
   <v>       0.08163265 </v>
   <v>       0.08163265 </v>
   <v>       0.08163265 </v>
   <v>       0.04081633 </v>
   <v>       0.08163265 </v>
   <v>       0.04081633 </v>
  </varray>
 </kpoints>
 <parameters>
  <separator name="general" >
   <i type="string" name="SYSTEM">SCF</i>
   <i type="logical" name="LCOMPAT"> F  </i>
  </separator>
  <separator name="electronic" >
   <i type="string" name="PREC">normal</i>
   <i name="ENMAX">    600.00000000</i>
   <i name="ENAUG">    644.87300000</i>
   <i name="EDIFF">      0.00000100</i>
   <i type="int" name="IALGO">    38</i>
   <i type="int" name="IWAVPR">    10</i>
   <i type="int" name="NBANDS">    46</i>
   <i type="int" name="NBANDSLOW">    -1</i>
   <i type="int" name="NBANDSHIGH">    -1</i>
   <i name="NELECT">     72.00000000</i>
   <i type="int" name="TURBO">     0</i>
   <i type="int" name="IRESTART">     0</i>
   <i type="int" name="NREBOOT">     0</i>
   <i type="int" name="NMIN">     0</i>
   <i name="EREF">      0.00000000</i>
   <separator name="electronic smearing" >
    <i type="int" name="ISMEAR">     0</i>
    <i name="SIGMA">      0.05000000</i>
    <i name="KSPACING">      0.50000000</i>
    <i type="logical" name="KGAMMA"> T  </i>
    <i type="logical" name="KBLOWUP"> T  </i>
   </separator>
   <separator name="electronic projectors" >
    <i type="logical" name="LREAL"> T  </i>
    <v name="ROPT">     -0.00050000</v>
    <i type="int" name="LMAXPAW">  -100</i>
    <i type="int" name="LMAXMIX">     2</i>
    <i type="logical" name="NLSPLINE"> F  </i>
   </separator>
   <separator name="electronic startup" >
    <i type="int" name="ISTART">     0</i>
    <i type="int" name="ICHARG">     2</i>
    <i type="int" name="INIWAV">     1</i>
   </separator>
   <separator name="electronic spin" >
    <i type="int" name="ISPIN">     1</i>
    <i type="logical" name="LNONCOLLINEAR"> F  </i>
    <v name="MAGMOM">      1.00000000      1.00000000      1.00000000      1.00000000      1.00000000      1.00000000      1.00000000      1.00000000      1.00000000      1.00000000      1.00000000      1.00000000      1.00000000      1.00000000      1.00000000      1.00000000      1.00000000      1.00000000</v>
    <i name="NUPDOWN">     -1.00000000</i>
    <i type="logical" name="LSORBIT"> F  </i>
    <v name="SAXIS">      0.00000000      0.00000000      1.00000000</v>
    <i type="logical" name="LSPIRAL"> F  </i>
    <v name="QSPIRAL">      0.00000000      0.00000000      0.00000000</v>
    <i type="logical" name="LZEROZ"> F  </i>
   </separator>
   <separator name="electronic exchange-correlation" >
    <i type="logical" name="LASPH"> F  </i>
    <i type="logical" name="LMETAGGA"> F  </i>
   </separator>
   <separator name="electronic convergence" >
    <i type="int" name="NELM">    60</i>
    <i type="int" name="NELMDL">    -5</i>
    <i type="int" name="NELMIN">     6</i>
    <i name="ENINI">    600.00000000</i>
    <separator name="electronic convergence detail" >
     <i type="logical" name="LDIAG"> T  </i>
     <i type="logical" name="LSUBROT"> F  </i>
     <i name="WEIMIN">      0.00000000</i>
     <i name="EBREAK">      0.00000000</i>
     <i name="DEPER">      0.30000000</i>
     <i type="int" name="NRMM">     4</i>
     <i name="TIME">      0.40000000</i>
    </separator>
   </separator>
   <separator name="electronic mixer" >
    <i name="AMIX">      0.40000000</i>
    <i name="BMIX">      1.00000000</i>
    <i name="AMIN">      0.10000000</i>
    <i name="AMIX_MAG">      1.60000000</i>
    <i name="BMIX_MAG">      1.00000000</i>
    <separator name="electronic mixer details" >
     <i type="int" name="IMIX">     4</i>
     <i type="logical" name="MIXFIRST"> F  </i>
     <i type="int" name="MAXMIX">   -45</i>
     <i name="WC">    100.00000000</i>
     <i type="int" name="INIMIX">     1</i>
     <i type="int" name="MIXPRE">     1</i>
     <i type="int" name="MREMOVE">     5</i>
    </separator>
   </separator>
   <separator name="electronic dipolcorrection" >
    <i type="logical" name="LDIPOL"> F  </i>
    <i type="logical" name="LMONO"> F  </i>
    <i type="int" name="IDIPOL">     0</i>
    <i name="EPSILON">      1.00000000</i>
    <v name="DIPOL">   -100.00000000   -100.00000000   -100.00000000</v>
    <i name="EFIELD">      0.00000000</i>
   </separator>
  </separator>
  <separator name="grids" >
   <i type="int" name="NGX">    48</i>
   <i type="int" name="NGY">    48</i>
   <i type="int" name="NGZ">   120</i>
   <i type="int" name="NGXF">    96</i>
   <i type="int" name="NGYF">    96</i>
   <i type="int" name="NGZF">   240</i>
   <i type="logical" name="ADDGRID"> F  </i>
  </separator>
  <separator name="ionic" >
   <i type="int" name="NSW">     0</i>
   <i type="int" name="IBRION">    -1</i>
   <i type="int" name="MDALGO">     0</i>
   <i type="int" name="ISIF">     2</i>
   <i name="PSTRESS">      0.00000000</i>
   <i name="EDIFFG">     -0.00000100</i>
   <i type="int" name="NFREE">     0</i>
   <i name="POTIM">      0.50000000</i>
   <i name="SMASS">     -3.00000000</i>
   <i name="SCALEE">      1.00000000</i>
  </separator>
  <separator name="ionic md" >
   <i name="TEBEG">      0.00010000</i>
   <i name="TEEND">      0.00010000</i>
   <i type="int" name="NBLOCK">     1</i>
   <i type="int" name="KBLOCK">     1</i>
   <i type="int" name="NPACO">   256</i>
   <i name="APACO">     10.00000000</i>
  </separator>
  <separator name="symmetry" >
   <i type="int" name="ISYM">     2</i>
   <i name="SYMPREC">      0.00001000</i>
  </separator>
  <separator name="dos" >
   <i type="int" name="LORBIT">     0</i>
   <v name="RWIGS">     -1.00000000</v>
   <i type="int" name="NEDOS">   301</i>
   <i name="EMIN">     10.00000000</i>
   <i name="EMAX">    -10.00000000</i>
   <i name="EFERMI">      0.00000000</i>
  </separator>
  <separator name="writing" >
   <i type="int" name="NWRITE">     2</i>
   <i type="logical" name="LWAVE"> F  </i>
   <i type="logical" name="LDOWNSAMPLE"> F  </i>
   <i type="logical" name="LCHARG"> F  </i>
   <i type="logical" name="LPARD"> F  </i>
   <i type="logical" name="LVTOT"> F  </i>
   <i type="logical" name="LVHAR"> F  </i>
   <i type="logical" name="LELF"> F  </i>
   <i type="logical" name="LOPTICS"> F  </i>
   <v name="STM">      0.00000000      0.00000000      0.00000000      0.00000000      0.00000000      0.00000000      0.00000000</v>
  </separator>
  <separator name="performance" >
   <i type="int" name="NPAR">     2</i>
   <i type="int" name="NSIM">     4</i>
   <i type="int" name="NBLK">    -1</i>
   <i type="logical" name="LPLANE"> T  </i>
   <i type="logical" name="LSCALAPACK"> T  </i>
   <i type="logical" name="LSCAAWARE"> F  </i>
   <i type="logical" name="LSCALU"> F  </i>
   <i type="logical" name="LASYNC"> F  </i>
   <i type="logical" name="LORBITALREAL"> F  </i>
  </separator>
  <separator name="miscellaneous" >
   <i type="int" name="IDIOT">     3</i>
   <i type="int" name="PHON_NSTRUCT">    -1</i>
   <i type="logical" name="LMUSIC"> F  </i>
   <v name="POMASS">     12.01100000</v>
   <v name="DARWINR">      0.00000000</v>
   <v name="DARWINV">      1.00000000</v>
   <i type="logical" name="LCORR"> T  </i>
  </separator>
  <i type="logical" name="GGA_COMPAT"> T  </i>
  <i type="logical" name="LBERRY"> F  </i>
  <i type="int" name="ICORELEVEL">     0</i>
  <i type="logical" name="LDAU"> F  </i>
  <i type="int" name="I_CONSTRAINED_M">     0</i>
  <separator name="electronic exchange-correlation" >
   <i type="string" name="GGA">--</i>
   <i type="int" name="VOSKOWN">     0</i>
   <i type="logical" name="LHFCALC"> F  </i>
   <i type="string" name="PRECFOCK"></i>
   <i type="logical" name="LSYMGRAD"> F  </i>
   <i type="logical" name="LHFONE"> F  </i>
   <i type="logical" name="LRHFCALC"> F  </i>
   <i type="logical" name="LTHOMAS"> F  </i>
   <i type="logical" name="LMODELHF"> F  </i>
   <i type="logical" name="LFOCKACE"> F  </i>
   <i name="ENCUT4O">     -1.00000000</i>
   <i type="int" name="EXXOEP">     0</i>
   <i type="int" name="FOURORBIT">     0</i>
   <i name="AEXX">      0.00000000</i>
   <i name="HFALPHA">      0.00000000</i>
   <i name="MCALPHA">      0.00000000</i>
   <i name="ALDAX">      1.00000000</i>
   <i name="AGGAX">      1.00000000</i>
   <i name="ALDAC">      1.00000000</i>
   <i name="AGGAC">      1.00000000</i>
   <i type="int" name="NKREDX">     1</i>
   <i type="int" name="NKREDY">     1</i>
   <i type="int" name="NKREDZ">     1</i>
   <i type="logical" name="SHIFTRED"> F  </i>
   <i type="logical" name="ODDONLY"> F  </i>
   <i type="logical" name="EVENONLY"> F  </i>
   <i type="int" name="LMAXFOCK">     0</i>
   <i type="int" name="NMAXFOCKAE">     0</i>
   <i type="logical" name="LFOCKAEDFT"> F  </i>
   <i name="HFSCREEN">      0.00000000</i>
   <i name="HFSCREENC">      0.00000000</i>
   <i type="int" name="NBANDSGWLOW">     0</i>
  </separator>
  <separator name="vdW DFT" >
   <i type="logical" name="LUSE_VDW"> F  </i>
   <i type="int" name="IVDW_NL">     1</i>
   <i type="logical" name="LSPIN_VDW"> F  </i>
   <i name="Zab_VDW">     -0.84910000</i>
   <i name="PARAM1">      0.12340000</i>
   <i name="PARAM2">      1.00000000</i>
   <i name="PARAM3">      0.00000000</i>
  </separator>
  <separator name="model GW" >
   <i type="int" name="MODEL_GW">     0</i>
   <i name="MODEL_EPS0">     31.63027863</i>
   <i name="MODEL_ALPHA">      1.00000000</i>
  </separator>
  <separator name="linear response parameters" >
   <i type="logical" name="LEPSILON"> F  </i>
   <i type="logical" name="LRPA"> F  </i>
   <i type="logical" name="LNABLA"> F  </i>
   <i type="logical" name="LVEL"> F  </i>
   <i name="CSHIFT">      0.10000000</i>
   <i name="OMEGAMAX">     -1.00000000</i>
   <i name="DEG_THRESHOLD">      0.00200000</i>
   <i name="RTIME">     -0.10000000</i>
   <i name="WPLASMAI">      0.00000000</i>
   <v name="DFIELD">      0.00000000      0.00000000      0.00000000</v>
   <v name="WPLASMA">      0.00000000      0.00000000      0.00000000      0.00000000      0.00000000      0.00000000      0.00000000      0.00000000      0.00000000</v>
  </separator>
  <separator name="orbital magnetization" >
   <i type="logical" name="NUCIND"> F  </i>
   <v name="MAGPOS">      0.00000000      0.00000000      0.00000000</v>
   <i type="logical" name="LNICSALL"> T  </i>
   <i type="logical" name="ORBITALMAG"> F  </i>
   <i type="logical" name="LMAGBLOCH"> F  </i>
   <i type="logical" name="LCHIMAG"> F  </i>
   <i type="logical" name="LGAUGE"> T  </i>
   <i type="int" name="MAGATOM">     0</i>
   <v name="MAGDIPOL">      0.00000000      0.00000000      0.00000000</v>
   <v name="AVECCONST">      0.00000000      0.00000000      0.00000000</v>
  </separator>
  <separator name="response functions" >
   <i type="logical" name="LALL_IN_ONE"> F  </i>
   <i type="int" name="IALL_IN_ONE">    -1</i>
   <i type="int" name="NBANDS_WAVE">    -1</i>
   <i type="logical" name="LFINITE_TEMPERATURE"> F  </i>
   <i type="logical" name="LADDER"> F  </i>
   <i type="logical" name="LRPAFORCE"> F  </i>
   <i type="logical" name="LFXC"> F  </i>
   <i type="logical" name="LHARTREE"> T  </i>
   <i type="int" name="IBSE">     0</i>
   <v type="int" name="KPOINT">    -1     0     0     0</v>
   <i type="logical" name="LTCTC"> F  </i>
   <i type="logical" name="LTCTE"> F  </i>
   <i type="logical" name="LTETE"> F  </i>
   <i type="logical" name="LTRIPLET"> F  </i>
   <i type="logical" name="LFXCEPS"> F  </i>
   <i type="logical" name="LFXHEG"> F  </i>
   <i type="int" name="NATURALO">     2</i>
   <i type="logical" name="LHOLEGF"> F  </i>
   <i type="logical" name="L2ORDER"> F  </i>
   <i type="logical" name="LDMP1"> F  </i>
   <i type="logical" name="LMP2LT"> F  </i>
   <i type="logical" name="LSMP2LT"> F  </i>
   <i type="logical" name="LGWLF"> F  </i>
   <i name="ENCUTGW">     -1.60000002</i>
   <i name="ENCUTGWSOFT">     -1.60000002</i>
   <i name="ENCUTLF">     -1.00000000</i>
   <i type="logical" name="LESF_SPLINES"> F  </i>
   <i type="int" name="LMAXMP2">    -1</i>
   <i name="SCISSOR">      0.00000000</i>
   <i type="int" name="NOMEGA">     0</i>
   <i type="int" name="NOMEGAR">     0</i>
   <i type="int" name="NBANDSGW">    -1</i>
   <i type="int" name="NBANDSO">    -1</i>
   <i type="int" name="NBANDSV">    -1</i>
   <i type="int" name="NELMGW">     1</i>
   <i type="int" name="NELMHF">     1</i>
   <i type="int" name="DIM">     3</i>
   <i type="int" name="IESPILON">     4</i>
   <i type="int" name="ANTIRES">     0</i>
   <i name="OMEGAMAX">    -30.00000000</i>
   <i name="OMEGAMIN">    -30.00000000</i>
   <i name="OMEGATL">   -200.00000000</i>
   <i type="int" name="OMEGAGRID">     0</i>
   <i name="CSHIFT">     -0.10000000</i>
   <i type="logical" name="LSELFENERGY"> F  </i>
   <i type="logical" name="LSPECTRAL"> F  </i>
   <i type="logical" name="LSPECTRALGW"> F  </i>
   <i type="logical" name="LSINGLES"> F  </i>
   <i type="logical" name="LFERMIGW"> F  </i>
   <i type="logical" name="ODDONLYGW"> F  </i>
   <i type="logical" name="EVENONLYGW"> F  </i>
   <i type="int" name="NKREDLFX">     1</i>
   <i type="int" name="NKREDLFY">     1</i>
   <i type="int" name="NKREDLFZ">     1</i>
   <i type="int" name="MAXMEM">  2800</i>
   <i type="int" name="TELESCOPE">     0</i>
   <i type="int" name="NTAUPAR">    -1</i>
   <i type="int" name="NOMEGAPAR">    -1</i>
   <i name="DAMP_NEWTON">      0.80000001</i>
   <i name="LAMBDA">      1.00000000</i>
  </separator>
  <separator name="External order field" >
   <i name="OFIELD_KAPPA">      0.00000000</i>
   <v name="OFIELD_K">      0.00000000      0.00000000      0.00000000</v>
   <i name="OFIELD_Q6_NEAR">      0.00000000</i>
   <i name="OFIELD_Q6_FAR">      0.00000000</i>
   <i name="OFIELD_A">      0.00000000</i>
  </separator>
  <separator name="optional k-points parameters" >
   <i type="int" name="KPOINTS_OPT_MODE">     1</i>
   <i type="logical" name="LKPOINTS_OPT"> F  </i>
  </separator>
 </parameters>
 <atominfo>
  <atoms>      18 </atoms>
  <types>       1 </types>
  <array name="atoms" >
   <dimension dim="1">ion</dimension>
   <field type="string">element</field>
   <field type="int">atomtype</field>
   <set>
    <rc><c>C </c><c>   1</c></rc>
    <rc><c>C </c><c>   1</c></rc>
    <rc><c>C </c><c>   1</c></rc>
    <rc><c>C </c><c>   1</c></rc>
    <rc><c>C </c><c>   1</c></rc>
    <rc><c>C </c><c>   1</c></rc>
    <rc><c>C </c><c>   1</c></rc>
    <rc><c>C </c><c>   1</c></rc>
    <rc><c>C </c><c>   1</c></rc>
    <rc><c>C </c><c>   1</c></rc>
    <rc><c>C </c><c>   1</c></rc>
    <rc><c>C </c><c>   1</c></rc>
    <rc><c>C </c><c>   1</c></rc>
    <rc><c>C </c><c>   1</c></rc>
    <rc><c>C </c><c>   1</c></rc>
    <rc><c>C </c><c>   1</c></rc>
    <rc><c>C </c><c>   1</c></rc>
    <rc><c>C </c><c>   1</c></rc>
   </set>
  </array>
  <array name="atomtypes" >
   <dimension dim="1">type</dimension>
   <field type="int">atomspertype</field>
   <field type="string">element</field>
   <field>mass</field>
   <field>valence</field>
   <field type="string">pseudopotential</field>
   <set>
    <rc><c>  18</c><c>C </c><c>     12.01100000</c><c>      4.00000000</c><c>  PAW_PBE C 08Apr2002                   </c></rc>
   </set>
  </array>
 </atominfo>
 <structure name="initialpos" >
  <crystal>
   <varray name="basis" >
    <v>       7.40170591       0.00000000       0.00000000 </v>
    <v>      -3.70085295       6.41006527       0.00000000 </v>
    <v>       0.00000000       0.00000000      20.00000000 </v>
   </varray>
   <i name="volume">    948.90835877 </i>
   <varray name="rec_basis" >
    <v>       0.13510399       0.07800233       0.00000000 </v>
    <v>       0.00000000       0.15600465       0.00000000 </v>
    <v>       0.00000000       0.00000000       0.05000000 </v>
   </varray>
  </crystal>
  <varray name="positions" >
   <v>       0.99921998       0.99843995       0.49950000 </v>
   <v>       0.33333333       0.00000000       0.50000000 </v>
   <v>       0.66666667       0.00000000       0.50000000 </v>
   <v>       0.00000000       0.33333333       0.50000000 </v>
   <v>       0.33333333       0.33333333       0.50000000 </v>
   <v>       0.66666667       0.33333333       0.50000000 </v>
   <v>       0.00000000       0.66666667       0.50000000 </v>
   <v>       0.33333333       0.66666667       0.50000000 </v>
   <v>       0.66666667       0.66666667       0.50000000 </v>
   <v>       0.22222222       0.11111111       0.50000000 </v>
   <v>       0.55555556       0.11111111       0.50000000 </v>
   <v>       0.88888889       0.11111111       0.50000000 </v>
   <v>       0.22222222       0.44444444       0.50000000 </v>
   <v>       0.55555556       0.44444444       0.50000000 </v>
   <v>       0.88888889       0.44444444       0.50000000 </v>
   <v>       0.22222222       0.77777778       0.50000000 </v>
   <v>       0.55555556       0.77777778       0.50000000 </v>
   <v>       0.88888889       0.77777778       0.50000000 </v>
  </varray>
 </structure>
 <calculation>
  <scstep>
   <time name="dav">    3.80    2.74</time>
   <time name="total">    3.89    2.84</time>
   <energy>
    <i name="alphaZ">     28.04858418 </i>
    <i name="ewald">  11638.84069520 </i>
    <i name="hartreedc"> -13553.15832427 </i>
    <i name="XCdc">    237.17731939 </i>
    <i name="pawpsdc">   1953.39683484 </i>
    <i name="pawaedc">  -1963.64613940 </i>
    <i name="eentropy">     -0.01216056 </i>
    <i name="bandstr">   -254.91036722 </i>
    <i name="atom">   2648.70517965 </i>
    <i name="e_fr_energy">    734.44162183 </i>
    <i name="e_wo_entrp">    734.45378238 </i>
    <i name="e_0_energy">    734.44770210 </i>
   </energy>
  </scstep>
  <scstep>
   <time name="dav">    5.14    5.32</time>
   <time name="total">    5.14    5.32</time>
   <energy>
    <i name="e_fr_energy">    -24.97725273 </i>
    <i name="e_wo_entrp">    -24.97704720 </i>
    <i name="e_0_energy">    -24.97714996 </i>
   </energy>
  </scstep>
  <scstep>
   <time name="dav">    4.13    4.30</time>
   <time name="total">    4.13    4.30</time>
   <energy>
    <i name="e_fr_energy">   -172.39516337 </i>
    <i name="e_wo_entrp">   -172.39376437 </i>
    <i name="e_0_energy">   -172.39446387 </i>
   </energy>
  </scstep>
  <scstep>
   <time name="dav">    4.15    4.33</time>
   <time name="total">    4.15    4.33</time>
   <energy>
    <i name="e_fr_energy">   -177.35246531 </i>
    <i name="e_wo_entrp">   -177.35030244 </i>
    <i name="e_0_energy">   -177.35138387 </i>
   </energy>
  </scstep>
  <scstep>
   <time name="dav">    4.68    4.87</time>
   <time name="total">    4.86    5.06</time>
   <energy>
    <i name="e_fr_energy">   -177.48545255 </i>
    <i name="e_wo_entrp">   -177.48329857 </i>
    <i name="e_0_energy">   -177.48437556 </i>
   </energy>
  </scstep>
  <scstep>
   <time name="dav">    3.84    4.00</time>
   <time name="total">    4.10    4.27</time>
   <energy>
    <i name="e_fr_energy">   -169.31858004 </i>
    <i name="e_wo_entrp">   -169.31638930 </i>
    <i name="e_0_energy">   -169.31748467 </i>
   </energy>
  </scstep>
  <scstep>
   <time name="dav">    3.88    4.02</time>
   <time name="total">    4.14    4.29</time>
   <energy>
    <i name="e_fr_energy">   -166.15048635 </i>
    <i name="e_wo_entrp">   -166.14827996 </i>
    <i name="e_0_energy">   -166.14938315 </i>
   </energy>
  </scstep>
  <scstep>
   <time name="dav">    4.10    3.03</time>
   <time name="total">    4.35    3.29</time>
   <energy>
    <i name="e_fr_energy">   -166.08751058 </i>
    <i name="e_wo_entrp">   -166.08531042 </i>
    <i name="e_0_energy">   -166.08641050 </i>
   </energy>
  </scstep>
  <scstep>
   <time name="dav">    4.12    4.28</time>
   <time name="total">    4.38    4.55</time>
   <energy>
    <i name="e_fr_energy">   -166.07473336 </i>
    <i name="e_wo_entrp">   -166.07253123 </i>
    <i name="e_0_energy">   -166.07363230 </i>
   </energy>
  </scstep>
  <scstep>
   <time name="dav">    3.72    3.87</time>
   <time name="total">    3.98    4.13</time>
   <energy>
    <i name="e_fr_energy">   -166.05620078 </i>
    <i name="e_wo_entrp">   -166.05399710 </i>
    <i name="e_0_energy">   -166.05509894 </i>
   </energy>
  </scstep>
  <scstep>
   <time name="dav">    3.75    3.89</time>
   <time name="total">    4.00    4.16</time>
   <energy>
    <i name="e_fr_energy">   -166.05977363 </i>
    <i name="e_wo_entrp">   -166.05757104 </i>
    <i name="e_0_energy">   -166.05867234 </i>
   </energy>
  </scstep>
  <scstep>
   <time name="dav">    3.61    3.74</time>
   <time name="total">    3.87    4.02</time>
   <energy>
    <i name="e_fr_energy">   -166.06467118 </i>
    <i name="e_wo_entrp">   -166.06246891 </i>
    <i name="e_0_energy">   -166.06357004 </i>
   </energy>
  </scstep>
  <scstep>
   <time name="dav">    3.84    3.98</time>
   <time name="total">    4.10    4.26</time>
   <energy>
    <i name="e_fr_energy">   -166.06871770 </i>
    <i name="e_wo_entrp">   -166.06651495 </i>
    <i name="e_0_energy">   -166.06761632 </i>
   </energy>
  </scstep>
  <scstep>
   <time name="dav">    3.60    3.74</time>
   <time name="total">    3.86    4.01</time>
   <energy>
    <i name="e_fr_energy">   -166.07256979 </i>
    <i name="e_wo_entrp">   -166.07036691 </i>
    <i name="e_0_energy">   -166.07146835 </i>
   </energy>
  </scstep>
  <scstep>
   <time name="dav">    3.78    3.93</time>
   <time name="total">    4.04    4.19</time>
   <energy>
    <i name="e_fr_energy">   -166.07373072 </i>
    <i name="e_wo_entrp">   -166.07152790 </i>
    <i name="e_0_energy">   -166.07262931 </i>
   </energy>
  </scstep>
  <scstep>
   <time name="dav">    3.86    4.01</time>
   <time name="total">    4.12    3.08</time>
   <energy>
    <i name="e_fr_energy">   -166.07388951 </i>
    <i name="e_wo_entrp">   -166.07168674 </i>
    <i name="e_0_energy">   -166.07278813 </i>
   </energy>
  </scstep>
  <scstep>
   <time name="dav">    3.66    3.80</time>
   <time name="total">    3.92    4.07</time>
   <energy>
    <i name="e_fr_energy">   -166.07410025 </i>
    <i name="e_wo_entrp">   -166.07189754 </i>
    <i name="e_0_energy">   -166.07299889 </i>
   </energy>
  </scstep>
  <scstep>
   <time name="dav">    3.34    3.47</time>
   <time name="total">    3.62    3.76</time>
   <energy>
    <i name="e_fr_energy">   -166.07413921 </i>
    <i name="e_wo_entrp">   -166.07193646 </i>
    <i name="e_0_energy">   -166.07303783 </i>
   </energy>
  </scstep>
  <scstep>
   <time name="dav">    3.30    3.42</time>
   <time name="total">    3.55    3.69</time>
   <energy>
    <i name="e_fr_energy">   -166.07417882 </i>
    <i name="e_wo_entrp">   -166.07197603 </i>
    <i name="e_0_energy">   -166.07307743 </i>
   </energy>
  </scstep>
  <scstep>
   <time name="dav">    2.87    2.98</time>
   <time name="total">    3.13    3.25</time>
   <energy>
    <i name="e_fr_energy">   -166.07419865 </i>
    <i name="e_wo_entrp">   -166.07199590 </i>
    <i name="e_0_energy">   -166.07309728 </i>
   </energy>
  </scstep>
  <scstep>
   <time name="dav">    2.58    2.68</time>
   <time name="total">    2.84    2.95</time>
   <energy>
    <i name="e_fr_energy">   -166.07420768 </i>
    <i name="e_wo_entrp">   -166.07200492 </i>
    <i name="e_0_energy">   -166.07310630 </i>
   </energy>
  </scstep>
  <scstep>
   <time name="dav">    2.57    2.67</time>
   <time name="total">    2.84    2.95</time>
   <energy>
    <i name="e_fr_energy">   -166.07421008 </i>
    <i name="e_wo_entrp">   -166.07200732 </i>
    <i name="e_0_energy">   -166.07310870 </i>
   </energy>
  </scstep>
  <scstep>
   <time name="dav">    2.61    2.71</time>
   <time name="total">    2.69    2.79</time>
   <energy>
    <i name="alphaZ">     28.04858418 </i>
    <i name="ewald">  11638.84069520 </i>
    <i name="hartreedc"> -13861.49363692 </i>
    <i name="XCdc">    247.81378583 </i>
    <i name="pawpsdc">   7452.76176290 </i>
    <i name="pawaedc">  -7465.02509802 </i>
    <i name="eentropy">     -0.00220276 </i>
    <i name="bandstr">   -855.72328043 </i>
    <i name="atom">   2648.70517965 </i>
    <i name="e_fr_energy">   -166.07421037 </i>
    <i name="e_wo_entrp">   -166.07200761 </i>
    <i name="e_0_energy">   -166.07310899 </i>
   </energy>
  </scstep>
  <structure>
   <crystal>
    <varray name="basis" >
     <v>       7.40170591       0.00000000       0.00000000 </v>
     <v>      -3.70085295       6.41006527       0.00000000 </v>
     <v>       0.00000000       0.00000000      20.00000000 </v>
    </varray>
    <i name="volume">    948.90835877 </i>
    <varray name="rec_basis" >
     <v>       0.13510399       0.07800233       0.00000000 </v>
     <v>       0.00000000       0.15600465       0.00000000 </v>
     <v>       0.00000000       0.00000000       0.05000000 </v>
    </varray>
   </crystal>
   <varray name="positions" >
    <v>       0.99921998       0.99843995       0.49950000 </v>
    <v>       0.33333333       0.00000000       0.50000000 </v>
    <v>       0.66666667       0.00000000       0.50000000 </v>
    <v>       0.00000000       0.33333333       0.50000000 </v>
    <v>       0.33333333       0.33333333       0.50000000 </v>
    <v>       0.66666667       0.33333333       0.50000000 </v>
    <v>       0.00000000       0.66666667       0.50000000 </v>
    <v>       0.33333333       0.66666667       0.50000000 </v>
    <v>       0.66666667       0.66666667       0.50000000 </v>
    <v>       0.22222222       0.11111111       0.50000000 </v>
    <v>       0.55555556       0.11111111       0.50000000 </v>
    <v>       0.88888889       0.11111111       0.50000000 </v>
    <v>       0.22222222       0.44444444       0.50000000 </v>
    <v>       0.55555556       0.44444444       0.50000000 </v>
    <v>       0.88888889       0.44444444       0.50000000 </v>
    <v>       0.22222222       0.77777778       0.50000000 </v>
    <v>       0.55555556       0.77777778       0.50000000 </v>
    <v>       0.88888889       0.77777778       0.50000000 </v>
   </varray>
  </structure>
  <varray name="forces" >
   <v>       0.00000000       0.60499872       0.14304538 </v>
   <v>      -0.01372903       0.02440048       0.00492158 </v>
   <v>       0.01372903       0.02440048       0.00492158 </v>
   <v>       0.01856398      -0.03150996       0.00456737 </v>
   <v>      -0.01856398      -0.03150996       0.00456737 </v>
   <v>      -0.00000000      -0.03068348      -0.00213591 </v>
   <v>       0.04627523      -0.03204881       0.00501322 </v>
   <v>      -0.00000000      -0.03069546      -0.00213533 </v>
   <v>      -0.04627523      -0.03204881       0.00501322 </v>
   <v>      -0.05314394      -0.13896728      -0.06236291 </v>
   <v>       0.00000000       0.02529099       0.00917510 </v>
   <v>       0.05314394      -0.13896728      -0.06236291 </v>
   <v>       0.00000000       0.03184179      -0.00339757 </v>
   <v>      -0.01038219       0.00728008       0.00906350 </v>
   <v>       0.01038219       0.00728008       0.00906350 </v>
   <v>      -0.02321195      -0.00842427      -0.00335495 </v>
   <v>       0.02321195      -0.00842427      -0.00335495 </v>
   <v>      -0.00000000      -0.24221305      -0.06024729 </v>
  </varray>
  <varray name="stress" >
   <v>      -0.22746339      -0.00000000      -0.00000000 </v>
   <v>      -0.00000000      -0.08681663      -0.00884772 </v>
   <v>      -0.00000000      -0.00884772      -0.57319477 </v>
  </varray>
  <energy>
   <i name="e_fr_energy">   -166.07421037 </i>
   <i name="e_wo_entrp">   -166.07200761 </i>
   <i name="e_0_energy">   -166.07310899 </i>
  </energy>
  <time name="totalsc">   93.07   93.03</time>
  <eigenvalues>
   <array>
    <dimension dim="1">band</dimension>
    <dimension dim="2">kpoint</dimension>
    <dimension dim="3">spin</dimension>
    <field>eigene</field>
    <field>occ</field>
    <set>
     <set comment="spin 1">
      <set comment="kpoint 1">
       <r>  -22.2559    1.0000 </r>
       <r>  -19.6959    1.0000 </r>
       <r>  -19.6748    1.0000 </r>
       <r>  -19.6743    1.0000 </r>
       <r>  -19.6718    1.0000 </r>
       <r>  -19.6690    1.0000 </r>
       <r>  -19.6544    1.0000 </r>
       <r>  -15.3579    1.0000 </r>
       <r>  -15.3407    1.0000 </r>
       <r>  -15.3329    1.0000 </r>
       <r>  -15.3315    1.0000 </r>
       <r>  -13.2920    1.0000 </r>
       <r>  -13.2873    1.0000 </r>
       <r>  -12.3991    1.0000 </r>
       <r>  -12.3809    1.0000 </r>
       <r>  -12.3756    1.0000 </r>
       <r>  -12.3738    1.0000 </r>
       <r>  -12.3633    1.0000 </r>
       <r>  -12.3548    1.0000 </r>
       <r>  -10.3599    1.0000 </r>
       <r>   -8.5503    1.0000 </r>
       <r>   -8.5277    1.0000 </r>
       <r>   -8.5236    1.0000 </r>
       <r>   -8.5230    1.0000 </r>
       <r>   -8.5202    1.0000 </r>
       <r>   -8.4962    1.0000 </r>
       <r>   -7.3898    1.0000 </r>
       <r>   -7.3717    1.0000 </r>
       <r>   -7.3714    1.0000 </r>
       <r>   -7.3696    1.0000 </r>
       <r>   -7.3683    1.0000 </r>
       <r>   -7.3543    1.0000 </r>
       <r>   -5.8007    1.0000 </r>
       <r>   -5.7679    1.0000 </r>
       <r>   -2.7715    0.6771 </r>
       <r>   -2.7553    0.5004 </r>
       <r>   -2.7527    0.4720 </r>
       <r>   -2.7416    0.3505 </r>
       <r>    0.5196    0.0000 </r>
       <r>    1.3122    0.0000 </r>
       <r>    1.6362    0.0000 </r>
       <r>    2.1196    0.0000 </r>
       <r>    2.1435    0.0000 </r>
       <r>    2.1449    0.0000 </r>
       <r>    2.1473    0.0000 </r>
       <r>    2.1653    0.0000 </r>
      </set>
      <set comment="kpoint 2">
       <r>  -22.2023    1.0000 </r>
       <r>  -20.3490    1.0000 </r>
       <r>  -19.9912    1.0000 </r>
       <r>  -19.9775    1.0000 </r>
       <r>  -19.2694    1.0000 </r>
       <r>  -19.2556    1.0000 </r>
       <r>  -18.9059    1.0000 </r>
       <r>  -16.0020    1.0000 </r>
       <r>  -15.9883    1.0000 </r>
       <r>  -14.9202    1.0000 </r>
       <r>  -14.9071    1.0000 </r>
       <r>  -13.5951    1.0000 </r>
       <r>  -12.9792    1.0000 </r>
       <r>  -12.9669    1.0000 </r>
       <r>  -12.9583    1.0000 </r>
       <r>  -12.9503    1.0000 </r>
       <r>  -11.7435    1.0000 </r>
       <r>  -11.7307    1.0000 </r>
       <r>  -11.1139    1.0000 </r>
       <r>  -10.2959    1.0000 </r>
       <r>   -8.8707    1.0000 </r>
       <r>   -8.8562    1.0000 </r>
       <r>   -8.8304    1.0000 </r>
       <r>   -8.5142    1.0000 </r>
       <r>   -8.4994    1.0000 </r>
       <r>   -8.1360    1.0000 </r>
       <r>   -8.1276    1.0000 </r>
       <r>   -7.7189    1.0000 </r>
       <r>   -7.7069    1.0000 </r>
       <r>   -6.9282    1.0000 </r>
       <r>   -6.9164    1.0000 </r>
       <r>   -6.5585    1.0000 </r>
       <r>   -5.9987    1.0000 </r>
       <r>   -5.9058    1.0000 </r>
       <r>   -3.5327    1.0000 </r>
       <r>   -3.5203    1.0000 </r>
       <r>   -2.0118    0.0000 </r>
       <r>   -1.9978    0.0000 </r>
       <r>    0.5922    0.0000 </r>
       <r>    0.8787    0.0000 </r>
       <r>    1.3858    0.0000 </r>
       <r>    1.4637    0.0000 </r>
       <r>    1.4813    0.0000 </r>
       <r>    1.7107    0.0000 </r>
       <r>    2.6297    0.0000 </r>
       <r>    2.7505    0.0000 </r>
      </set>
      <set comment="kpoint 3">
       <r>  -22.2024    1.0000 </r>
       <r>  -20.3493    1.0000 </r>
       <r>  -19.9854    1.0000 </r>
       <r>  -19.9828    1.0000 </r>
       <r>  -19.2638    1.0000 </r>
       <r>  -19.2609    1.0000 </r>
       <r>  -18.9062    1.0000 </r>
       <r>  -15.9997    1.0000 </r>
       <r>  -15.9917    1.0000 </r>
       <r>  -14.9166    1.0000 </r>
       <r>  -14.9083    1.0000 </r>
       <r>  -13.6029    1.0000 </r>
       <r>  -12.9755    1.0000 </r>
       <r>  -12.9689    1.0000 </r>
       <r>  -12.9534    1.0000 </r>
       <r>  -12.9512    1.0000 </r>
       <r>  -11.7354    1.0000 </r>
       <r>  -11.7269    1.0000 </r>
       <r>  -11.1245    1.0000 </r>
       <r>  -10.2959    1.0000 </r>
       <r>   -8.8743    1.0000 </r>
       <r>   -8.8609    1.0000 </r>
       <r>   -8.8209    1.0000 </r>
       <r>   -8.5217    1.0000 </r>
       <r>   -8.5069    1.0000 </r>
       <r>   -8.1258    1.0000 </r>
       <r>   -8.1224    1.0000 </r>
       <r>   -7.7163    1.0000 </r>
       <r>   -7.7125    1.0000 </r>
       <r>   -6.9254    1.0000 </r>
       <r>   -6.9219    1.0000 </r>
       <r>   -6.5538    1.0000 </r>
       <r>   -6.0202    1.0000 </r>
       <r>   -5.8841    1.0000 </r>
       <r>   -3.5285    1.0000 </r>
       <r>   -3.5254    1.0000 </r>
       <r>   -2.0052    0.0000 </r>
       <r>   -2.0033    0.0000 </r>
       <r>    0.5922    0.0000 </r>
       <r>    0.8672    0.0000 </r>
       <r>    1.3858    0.0000 </r>
       <r>    1.4752    0.0000 </r>
       <r>    1.4772    0.0000 </r>
       <r>    1.7107    0.0000 </r>
       <r>    2.6298    0.0000 </r>
       <r>    2.7635    0.0000 </r>
      </set>
      <set comment="kpoint 4">
       <r>  -22.0418    1.0000 </r>
       <r>  -20.9266    1.0000 </r>
       <r>  -20.1996    1.0000 </r>
       <r>  -20.1860    1.0000 </r>
       <r>  -18.7623    1.0000 </r>
       <r>  -18.7483    1.0000 </r>
       <r>  -18.0630    1.0000 </r>
       <r>  -16.7519    1.0000 </r>
       <r>  -16.7380    1.0000 </r>
       <r>  -14.7509    1.0000 </r>
       <r>  -14.6307    1.0000 </r>
       <r>  -14.6190    1.0000 </r>
       <r>  -13.5061    1.0000 </r>
       <r>  -13.4947    1.0000 </r>
       <r>  -12.1901    1.0000 </r>
       <r>  -12.1764    1.0000 </r>
       <r>  -11.1074    1.0000 </r>
       <r>  -11.0943    1.0000 </r>
       <r>  -10.1047    1.0000 </r>
       <r>   -9.8560    1.0000 </r>
       <r>   -9.5012    1.0000 </r>
       <r>   -9.4863    1.0000 </r>
       <r>   -9.0418    1.0000 </r>
       <r>   -8.7927    1.0000 </r>
       <r>   -8.7640    1.0000 </r>
       <r>   -8.7504    1.0000 </r>
       <r>   -7.9502    1.0000 </r>
       <r>   -7.9382    1.0000 </r>
       <r>   -7.6762    1.0000 </r>
       <r>   -6.6157    1.0000 </r>
       <r>   -6.3830    1.0000 </r>
       <r>   -6.3713    1.0000 </r>
       <r>   -6.2233    1.0000 </r>
       <r>   -5.7674    1.0000 </r>
       <r>   -4.3046    1.0000 </r>
       <r>   -4.2928    1.0000 </r>
       <r>   -1.2908    0.0000 </r>
       <r>   -1.2756    0.0000 </r>
       <r>   -0.2331    0.0000 </r>
       <r>    0.7773    0.0000 </r>
       <r>    0.7941    0.0000 </r>
       <r>    0.8124    0.0000 </r>
       <r>    1.6066    0.0000 </r>
       <r>    1.9341    0.0000 </r>
       <r>    2.3341    0.0000 </r>
       <r>    2.8511    0.0000 </r>
      </set>
      <set comment="kpoint 5">
       <r>  -22.0419    1.0000 </r>
       <r>  -20.9268    1.0000 </r>
       <r>  -20.1937    1.0000 </r>
       <r>  -20.1913    1.0000 </r>
       <r>  -18.7571    1.0000 </r>
       <r>  -18.7536    1.0000 </r>
       <r>  -18.0627    1.0000 </r>
       <r>  -16.7486    1.0000 </r>
       <r>  -16.7424    1.0000 </r>
       <r>  -14.7591    1.0000 </r>
       <r>  -14.6259    1.0000 </r>
       <r>  -14.6196    1.0000 </r>
       <r>  -13.5004    1.0000 </r>
       <r>  -13.4940    1.0000 </r>
       <r>  -12.1858    1.0000 </r>
       <r>  -12.1841    1.0000 </r>
       <r>  -11.0971    1.0000 </r>
       <r>  -11.0876    1.0000 </r>
       <r>  -10.1046    1.0000 </r>
       <r>   -9.8687    1.0000 </r>
       <r>   -9.5035    1.0000 </r>
       <r>   -9.4925    1.0000 </r>
       <r>   -9.0307    1.0000 </r>
       <r>   -8.7924    1.0000 </r>
       <r>   -8.7734    1.0000 </r>
       <r>   -8.7605    1.0000 </r>
       <r>   -7.9475    1.0000 </r>
       <r>   -7.9440    1.0000 </r>
       <r>   -7.6610    1.0000 </r>
       <r>   -6.6363    1.0000 </r>
       <r>   -6.3802    1.0000 </r>
       <r>   -6.3768    1.0000 </r>
       <r>   -6.2018    1.0000 </r>
       <r>   -5.7598    1.0000 </r>
       <r>   -4.3010    1.0000 </r>
       <r>   -4.2978    1.0000 </r>
       <r>   -1.2828    0.0000 </r>
       <r>   -1.2815    0.0000 </r>
       <r>   -0.2477    0.0000 </r>
       <r>    0.7882    0.0000 </r>
       <r>    0.7891    0.0000 </r>
       <r>    0.8124    0.0000 </r>
       <r>    1.6066    0.0000 </r>
       <r>    1.9341    0.0000 </r>
       <r>    2.3341    0.0000 </r>
       <r>    2.8511    0.0000 </r>
      </set>
      <set comment="kpoint 6">
       <r>  -21.7750    1.0000 </r>
       <r>  -21.4027    1.0000 </r>
       <r>  -20.3042    1.0000 </r>
       <r>  -20.2906    1.0000 </r>
       <r>  -18.1652    1.0000 </r>
       <r>  -18.1511    1.0000 </r>
       <r>  -17.4883    1.0000 </r>
       <r>  -17.4742    1.0000 </r>
       <r>  -17.2299    1.0000 </r>
       <r>  -15.7420    1.0000 </r>
       <r>  -14.3289    1.0000 </r>
       <r>  -14.3173    1.0000 </r>
       <r>  -13.9574    1.0000 </r>
       <r>  -13.9463    1.0000 </r>
       <r>  -11.2652    1.0000 </r>
       <r>  -11.2505    1.0000 </r>
       <r>  -10.6082    1.0000 </r>
       <r>  -10.5957    1.0000 </r>
       <r>  -10.3338    1.0000 </r>
       <r>  -10.3191    1.0000 </r>
       <r>   -9.7878    1.0000 </r>
       <r>   -9.3486    1.0000 </r>
       <r>   -9.1486    1.0000 </r>
       <r>   -9.0895    1.0000 </r>
       <r>   -9.0799    1.0000 </r>
       <r>   -8.6409    1.0000 </r>
       <r>   -8.0666    1.0000 </r>
       <r>   -8.0546    1.0000 </r>
       <r>   -7.5326    1.0000 </r>
       <r>   -7.1740    1.0000 </r>
       <r>   -6.6705    1.0000 </r>
       <r>   -5.7525    1.0000 </r>
       <r>   -5.7408    1.0000 </r>
       <r>   -5.2019    1.0000 </r>
       <r>   -5.0524    1.0000 </r>
       <r>   -5.0410    1.0000 </r>
       <r>   -0.9641    0.0000 </r>
       <r>   -0.5935    0.0000 </r>
       <r>   -0.5773    0.0000 </r>
       <r>    0.0928    0.0000 </r>
       <r>    0.1095    0.0000 </r>
       <r>    1.1736    0.0000 </r>
       <r>    1.6817    0.0000 </r>
       <r>    1.9739    0.0000 </r>
       <r>    2.3065    0.0000 </r>
       <r>    2.4869    0.0000 </r>
      </set>
      <set comment="kpoint 7">
       <r>  -21.7751    1.0000 </r>
       <r>  -21.4027    1.0000 </r>
       <r>  -20.2982    1.0000 </r>
       <r>  -20.2959    1.0000 </r>
       <r>  -18.1607    1.0000 </r>
       <r>  -18.1562    1.0000 </r>
       <r>  -17.4841    1.0000 </r>
       <r>  -17.4791    1.0000 </r>
       <r>  -17.2262    1.0000 </r>
       <r>  -15.7529    1.0000 </r>
       <r>  -14.3238    1.0000 </r>
       <r>  -14.3175    1.0000 </r>
       <r>  -13.9520    1.0000 </r>
       <r>  -13.9459    1.0000 </r>
       <r>  -11.2630    1.0000 </r>
       <r>  -11.2579    1.0000 </r>
       <r>  -10.5935    1.0000 </r>
       <r>  -10.5832    1.0000 </r>
       <r>  -10.3343    1.0000 </r>
       <r>  -10.3259    1.0000 </r>
       <r>   -9.7875    1.0000 </r>
       <r>   -9.3479    1.0000 </r>
       <r>   -9.1371    1.0000 </r>
       <r>   -9.1073    1.0000 </r>
       <r>   -9.0932    1.0000 </r>
       <r>   -8.6557    1.0000 </r>
       <r>   -8.0640    1.0000 </r>
       <r>   -8.0604    1.0000 </r>
       <r>   -7.5500    1.0000 </r>
       <r>   -7.1576    1.0000 </r>
       <r>   -6.6508    1.0000 </r>
       <r>   -5.7499    1.0000 </r>
       <r>   -5.7460    1.0000 </r>
       <r>   -5.1911    1.0000 </r>
       <r>   -5.0489    1.0000 </r>
       <r>   -5.0462    1.0000 </r>
       <r>   -0.9826    0.0000 </r>
       <r>   -0.5838    0.0000 </r>
       <r>   -0.5835    0.0000 </r>
       <r>    0.1031    0.0000 </r>
       <r>    0.1038    0.0000 </r>
       <r>    1.1736    0.0000 </r>
       <r>    1.6818    0.0000 </r>
       <r>    1.9740    0.0000 </r>
       <r>    2.3065    0.0000 </r>
       <r>    2.4871    0.0000 </r>
      </set>
      <set comment="kpoint 8">
       <r>  -22.0953    1.0000 </r>
       <r>  -20.6143    1.0000 </r>
       <r>  -20.6077    1.0000 </r>
       <r>  -19.5238    1.0000 </r>
       <r>  -19.5148    1.0000 </r>
       <r>  -18.4583    1.0000 </r>
       <r>  -18.4515    1.0000 </r>
       <r>  -16.7784    1.0000 </r>
       <r>  -16.1642    1.0000 </r>
       <r>  -15.2354    1.0000 </r>
       <r>  -14.2594    1.0000 </r>
       <r>  -14.1653    1.0000 </r>
       <r>  -14.1536    1.0000 </r>
       <r>  -12.6016    1.0000 </r>
       <r>  -12.3094    1.0000 </r>
       <r>  -12.3009    1.0000 </r>
       <r>  -12.2716    1.0000 </r>
       <r>  -10.4966    1.0000 </r>
       <r>  -10.4790    1.0000 </r>
       <r>  -10.1682    1.0000 </r>
       <r>   -9.1882    1.0000 </r>
       <r>   -9.1747    1.0000 </r>
       <r>   -9.1272    1.0000 </r>
       <r>   -9.1142    1.0000 </r>
       <r>   -8.4286    1.0000 </r>
       <r>   -8.4232    1.0000 </r>
       <r>   -8.0824    1.0000 </r>
       <r>   -8.0632    1.0000 </r>
       <r>   -7.1959    1.0000 </r>
       <r>   -7.1876    1.0000 </r>
       <r>   -6.4165    1.0000 </r>
       <r>   -6.1236    1.0000 </r>
       <r>   -6.1067    1.0000 </r>
       <r>   -6.0992    1.0000 </r>
       <r>   -4.2555    1.0000 </r>
       <r>   -3.9032    1.0000 </r>
       <r>   -1.7053    0.0000 </r>
       <r>   -1.2688    0.0000 </r>
       <r>    0.2635    0.0000 </r>
       <r>    0.2774    0.0000 </r>
       <r>    0.7377    0.0000 </r>
       <r>    1.5330    0.0000 </r>
       <r>    1.8596    0.0000 </r>
       <r>    2.0089    0.0000 </r>
       <r>    2.0202    0.0000 </r>
       <r>    2.7773    0.0000 </r>
      </set>
      <set comment="kpoint 9">
       <r>  -22.0953    1.0000 </r>
       <r>  -20.6175    1.0000 </r>
       <r>  -20.6044    1.0000 </r>
       <r>  -19.5286    1.0000 </r>
       <r>  -19.5106    1.0000 </r>
       <r>  -18.4617    1.0000 </r>
       <r>  -18.4480    1.0000 </r>
       <r>  -16.7794    1.0000 </r>
       <r>  -16.1568    1.0000 </r>
       <r>  -15.2504    1.0000 </r>
       <r>  -14.2485    1.0000 </r>
       <r>  -14.1657    1.0000 </r>
       <r>  -14.1458    1.0000 </r>
       <r>  -12.6112    1.0000 </r>
       <r>  -12.3197    1.0000 </r>
       <r>  -12.3068    1.0000 </r>
       <r>  -12.2651    1.0000 </r>
       <r>  -10.4959    1.0000 </r>
       <r>  -10.4716    1.0000 </r>
       <r>  -10.1683    1.0000 </r>
       <r>   -9.1800    1.0000 </r>
       <r>   -9.1597    1.0000 </r>
       <r>   -9.1344    1.0000 </r>
       <r>   -9.1183    1.0000 </r>
       <r>   -8.4315    1.0000 </r>
       <r>   -8.4211    1.0000 </r>
       <r>   -8.0890    1.0000 </r>
       <r>   -8.0669    1.0000 </r>
       <r>   -7.1972    1.0000 </r>
       <r>   -7.1808    1.0000 </r>
       <r>   -6.3930    1.0000 </r>
       <r>   -6.1475    1.0000 </r>
       <r>   -6.1113    1.0000 </r>
       <r>   -6.1016    1.0000 </r>
       <r>   -4.2624    1.0000 </r>
       <r>   -3.8917    1.0000 </r>
       <r>   -1.7208    0.0000 </r>
       <r>   -1.2581    0.0000 </r>
       <r>    0.2716    0.0000 </r>
       <r>    0.2843    0.0000 </r>
       <r>    0.7377    0.0000 </r>
       <r>    1.5330    0.0000 </r>
       <r>    1.8596    0.0000 </r>
       <r>    1.9952    0.0000 </r>
       <r>    2.0167    0.0000 </r>
       <r>    2.7773    0.0000 </r>
      </set>
      <set comment="kpoint 10">
       <r>  -21.8816    1.0000 </r>
       <r>  -21.1378    1.0000 </r>
       <r>  -20.7689    1.0000 </r>
       <r>  -19.6745    1.0000 </r>
       <r>  -18.9579    1.0000 </r>
       <r>  -17.9164    1.0000 </r>
       <r>  -17.5954    1.0000 </r>
       <r>  -17.5713    1.0000 </r>
       <r>  -16.6726    1.0000 </r>
       <r>  -15.2516    1.0000 </r>
       <r>  -15.2449    1.0000 </r>
       <r>  -14.6404    1.0000 </r>
       <r>  -13.7324    1.0000 </r>
       <r>  -12.8164    1.0000 </r>
       <r>  -11.8934    1.0000 </r>
       <r>  -11.6826    1.0000 </r>
       <r>  -11.3921    1.0000 </r>
       <r>  -10.0459    1.0000 </r>
       <r>   -9.9253    1.0000 </r>
       <r>   -9.9133    1.0000 </r>
       <r>   -9.7040    1.0000 </r>
       <r>   -9.6302    1.0000 </r>
       <r>   -9.2874    1.0000 </r>
       <r>   -9.2561    1.0000 </r>
       <r>   -9.0379    1.0000 </r>
       <r>   -8.6061    1.0000 </r>
       <r>   -8.2494    1.0000 </r>
       <r>   -7.5865    1.0000 </r>
       <r>   -7.3539    1.0000 </r>
       <r>   -7.1438    1.0000 </r>
       <r>   -6.5704    1.0000 </r>
       <r>   -6.5443    1.0000 </r>
       <r>   -5.5767    1.0000 </r>
       <r>   -5.3885    1.0000 </r>
       <r>   -5.0714    1.0000 </r>
       <r>   -4.4371    1.0000 </r>
       <r>   -1.2901    0.0000 </r>
       <r>   -0.6803    0.0000 </r>
       <r>   -0.4307    0.0000 </r>
       <r>   -0.3068    0.0000 </r>
       <r>    1.0282    0.0000 </r>
       <r>    1.2301    0.0000 </r>
       <r>    1.8271    0.0000 </r>
       <r>    2.0446    0.0000 </r>
       <r>    2.1575    0.0000 </r>
       <r>    2.4017    0.0000 </r>
      </set>
      <set comment="kpoint 11">
       <r>  -21.8817    1.0000 </r>
       <r>  -21.1380    1.0000 </r>
       <r>  -20.7686    1.0000 </r>
       <r>  -19.6742    1.0000 </r>
       <r>  -18.9581    1.0000 </r>
       <r>  -17.9170    1.0000 </r>
       <r>  -17.5946    1.0000 </r>
       <r>  -17.5708    1.0000 </r>
       <r>  -16.6723    1.0000 </r>
       <r>  -15.2615    1.0000 </r>
       <r>  -15.2448    1.0000 </r>
       <r>  -14.6324    1.0000 </r>
       <r>  -13.7283    1.0000 </r>
       <r>  -12.8199    1.0000 </r>
       <r>  -11.8975    1.0000 </r>
       <r>  -11.6763    1.0000 </r>
       <r>  -11.3914    1.0000 </r>
       <r>  -10.0414    1.0000 </r>
       <r>   -9.9156    1.0000 </r>
       <r>   -9.9074    1.0000 </r>
       <r>   -9.7143    1.0000 </r>
       <r>   -9.6374    1.0000 </r>
       <r>   -9.2756    1.0000 </r>
       <r>   -9.2727    1.0000 </r>
       <r>   -9.0369    1.0000 </r>
       <r>   -8.6075    1.0000 </r>
       <r>   -8.2676    1.0000 </r>
       <r>   -7.5684    1.0000 </r>
       <r>   -7.3556    1.0000 </r>
       <r>   -7.1537    1.0000 </r>
       <r>   -6.5682    1.0000 </r>
       <r>   -6.5341    1.0000 </r>
       <r>   -5.5835    1.0000 </r>
       <r>   -5.3794    1.0000 </r>
       <r>   -5.0730    1.0000 </r>
       <r>   -4.4355    1.0000 </r>
       <r>   -1.2925    0.0000 </r>
       <r>   -0.6966    0.0000 </r>
       <r>   -0.4267    0.0000 </r>
       <r>   -0.2944    0.0000 </r>
       <r>    1.0282    0.0000 </r>
       <r>    1.2245    0.0000 </r>
       <r>    1.8271    0.0000 </r>
       <r>    2.0447    0.0000 </r>
       <r>    2.1576    0.0000 </r>
       <r>    2.4081    0.0000 </r>
      </set>
      <set comment="kpoint 12">
       <r>  -21.8816    1.0000 </r>
       <r>  -21.1379    1.0000 </r>
       <r>  -20.7687    1.0000 </r>
       <r>  -19.6747    1.0000 </r>
       <r>  -18.9582    1.0000 </r>
       <r>  -17.9169    1.0000 </r>
       <r>  -17.5945    1.0000 </r>
       <r>  -17.5724    1.0000 </r>
       <r>  -16.6684    1.0000 </r>
       <r>  -15.2618    1.0000 </r>
       <r>  -15.2469    1.0000 </r>
       <r>  -14.6317    1.0000 </r>
       <r>  -13.7210    1.0000 </r>
       <r>  -12.8270    1.0000 </r>
       <r>  -11.9057    1.0000 </r>
       <r>  -11.6891    1.0000 </r>
       <r>  -11.3827    1.0000 </r>
       <r>  -10.0328    1.0000 </r>
       <r>   -9.9188    1.0000 </r>
       <r>   -9.9122    1.0000 </r>
       <r>   -9.7148    1.0000 </r>
       <r>   -9.6218    1.0000 </r>
       <r>   -9.2881    1.0000 </r>
       <r>   -9.2596    1.0000 </r>
       <r>   -9.0376    1.0000 </r>
       <r>   -8.6066    1.0000 </r>
       <r>   -8.2594    1.0000 </r>
       <r>   -7.5817    1.0000 </r>
       <r>   -7.3529    1.0000 </r>
       <r>   -7.1302    1.0000 </r>
       <r>   -6.5677    1.0000 </r>
       <r>   -6.5571    1.0000 </r>
       <r>   -5.5847    1.0000 </r>
       <r>   -5.3888    1.0000 </r>
       <r>   -5.0776    1.0000 </r>
       <r>   -4.4257    1.0000 </r>
       <r>   -1.3073    0.0000 </r>
       <r>   -0.6794    0.0000 </r>
       <r>   -0.4182    0.0000 </r>
       <r>   -0.2921    0.0000 </r>
       <r>    1.0282    0.0000 </r>
       <r>    1.2185    0.0000 </r>
       <r>    1.8271    0.0000 </r>
       <r>    2.0447    0.0000 </r>
       <r>    2.1575    0.0000 </r>
       <r>    2.3983    0.0000 </r>
      </set>
      <set comment="kpoint 13">
       <r>  -21.5653    1.0000 </r>
       <r>  -21.5588    1.0000 </r>
       <r>  -20.8215    1.0000 </r>
       <r>  -19.7263    1.0000 </r>
       <r>  -18.3108    1.0000 </r>
       <r>  -18.3013    1.0000 </r>
       <r>  -17.3123    1.0000 </r>
       <r>  -17.3022    1.0000 </r>
       <r>  -16.9890    1.0000 </r>
       <r>  -15.9345    1.0000 </r>
       <r>  -15.0168    1.0000 </r>
       <r>  -15.0051    1.0000 </r>
       <r>  -13.2887    1.0000 </r>
       <r>  -13.2756    1.0000 </r>
       <r>  -11.3629    1.0000 </r>
       <r>  -10.9946    1.0000 </r>
       <r>  -10.9807    1.0000 </r>
       <r>  -10.5044    1.0000 </r>
       <r>  -10.4927    1.0000 </r>
       <r>   -9.9004    1.0000 </r>
       <r>   -9.6404    1.0000 </r>
       <r>   -9.5386    1.0000 </r>
       <r>   -9.5334    1.0000 </r>
       <r>   -9.3394    1.0000 </r>
       <r>   -8.6668    1.0000 </r>
       <r>   -8.4127    1.0000 </r>
       <r>   -8.1269    1.0000 </r>
       <r>   -8.1120    1.0000 </r>
       <r>   -7.4084    1.0000 </r>
       <r>   -7.0672    1.0000 </r>
       <r>   -7.0503    1.0000 </r>
       <r>   -5.8606    1.0000 </r>
       <r>   -5.8512    1.0000 </r>
       <r>   -5.0674    1.0000 </r>
       <r>   -5.0167    1.0000 </r>
       <r>   -5.0052    1.0000 </r>
       <r>   -1.0831    0.0000 </r>
       <r>   -0.8340    0.0000 </r>
       <r>   -0.8161    0.0000 </r>
       <r>    0.4040    0.0000 </r>
       <r>    0.4179    0.0000 </r>
       <r>    1.4638    0.0000 </r>
       <r>    1.4645    0.0000 </r>
       <r>    2.2673    0.0000 </r>
       <r>    2.2676    0.0000 </r>
       <r>    2.6044    0.0000 </r>
      </set>
      <set comment="kpoint 14">
       <r>  -21.5686    1.0000 </r>
       <r>  -21.5557    1.0000 </r>
       <r>  -20.8213    1.0000 </r>
       <r>  -19.7260    1.0000 </r>
       <r>  -18.3156    1.0000 </r>
       <r>  -18.2967    1.0000 </r>
       <r>  -17.3180    1.0000 </r>
       <r>  -17.2983    1.0000 </r>
       <r>  -16.9827    1.0000 </r>
       <r>  -15.9481    1.0000 </r>
       <r>  -15.0137    1.0000 </r>
       <r>  -15.0002    1.0000 </r>
       <r>  -13.2886    1.0000 </r>
       <r>  -13.2745    1.0000 </r>
       <r>  -11.3489    1.0000 </r>
       <r>  -10.9940    1.0000 </r>
       <r>  -10.9826    1.0000 </r>
       <r>  -10.5084    1.0000 </r>
       <r>  -10.4972    1.0000 </r>
       <r>   -9.9155    1.0000 </r>
       <r>   -9.6243    1.0000 </r>
       <r>   -9.5408    1.0000 </r>
       <r>   -9.5302    1.0000 </r>
       <r>   -9.3285    1.0000 </r>
       <r>   -8.6679    1.0000 </r>
       <r>   -8.4312    1.0000 </r>
       <r>   -8.1467    1.0000 </r>
       <r>   -8.1230    1.0000 </r>
       <r>   -7.4106    1.0000 </r>
       <r>   -7.0578    1.0000 </r>
       <r>   -7.0253    1.0000 </r>
       <r>   -5.8634    1.0000 </r>
       <r>   -5.8476    1.0000 </r>
       <r>   -5.0557    1.0000 </r>
       <r>   -5.0215    1.0000 </r>
       <r>   -5.0069    1.0000 </r>
       <r>   -1.1021    0.0000 </r>
       <r>   -0.8251    0.0000 </r>
       <r>   -0.8139    0.0000 </r>
       <r>    0.4028    0.0000 </r>
       <r>    0.4168    0.0000 </r>
       <r>    1.4635    0.0000 </r>
       <r>    1.4649    0.0000 </r>
       <r>    2.2672    0.0000 </r>
       <r>    2.2678    0.0000 </r>
       <r>    2.4871    0.0000 </r>
      </set>
      <set comment="kpoint 15">
       <r>  -21.6154    1.0000 </r>
       <r>  -21.2469    1.0000 </r>
       <r>  -21.2404    1.0000 </r>
       <r>  -19.0647    1.0000 </r>
       <r>  -19.0554    1.0000 </r>
       <r>  -18.3557    1.0000 </r>
       <r>  -17.0924    1.0000 </r>
       <r>  -17.0843    1.0000 </r>
       <r>  -16.7135    1.0000 </r>
       <r>  -15.6722    1.0000 </r>
       <r>  -15.6226    1.0000 </r>
       <r>  -15.6092    1.0000 </r>
       <r>  -12.9220    1.0000 </r>
       <r>  -12.2662    1.0000 </r>
       <r>  -12.2547    1.0000 </r>
       <r>  -11.3498    1.0000 </r>
       <r>  -10.5634    1.0000 </r>
       <r>  -10.5571    1.0000 </r>
       <r>  -10.5453    1.0000 </r>
       <r>   -9.8237    1.0000 </r>
       <r>   -9.8118    1.0000 </r>
       <r>   -9.5986    1.0000 </r>
       <r>   -9.1637    1.0000 </r>
       <r>   -9.1584    1.0000 </r>
       <r>   -8.8324    1.0000 </r>
       <r>   -8.8092    1.0000 </r>
       <r>   -7.8898    1.0000 </r>
       <r>   -7.6992    1.0000 </r>
       <r>   -7.6745    1.0000 </r>
       <r>   -7.0748    1.0000 </r>
       <r>   -6.6697    1.0000 </r>
       <r>   -6.6612    1.0000 </r>
       <r>   -5.8921    1.0000 </r>
       <r>   -5.0092    1.0000 </r>
       <r>   -4.9972    1.0000 </r>
       <r>   -4.6768    1.0000 </r>
       <r>   -1.2219    0.0000 </r>
       <r>   -1.0371    0.0000 </r>
       <r>   -1.0185    0.0000 </r>
       <r>    0.5249    0.0000 </r>
       <r>    1.3912    0.0000 </r>
       <r>    1.4784    0.0000 </r>
       <r>    1.4907    0.0000 </r>
       <r>    1.8999    0.0000 </r>
       <r>    1.9007    0.0000 </r>
       <r>    2.1943    0.0000 </r>
      </set>
      <set comment="kpoint 16">
       <r>  -21.6152    1.0000 </r>
       <r>  -21.2502    1.0000 </r>
       <r>  -21.2373    1.0000 </r>
       <r>  -19.0694    1.0000 </r>
       <r>  -19.0511    1.0000 </r>
       <r>  -18.3555    1.0000 </r>
       <r>  -17.0970    1.0000 </r>
       <r>  -17.0833    1.0000 </r>
       <r>  -16.7070    1.0000 </r>
       <r>  -15.6863    1.0000 </r>
       <r>  -15.6173    1.0000 </r>
       <r>  -15.6032    1.0000 </r>
       <r>  -12.9103    1.0000 </r>
       <r>  -12.2761    1.0000 </r>
       <r>  -12.2622    1.0000 </r>
       <r>  -11.3626    1.0000 </r>
       <r>  -10.5554    1.0000 </r>
       <r>  -10.5494    1.0000 </r>
       <r>  -10.5316    1.0000 </r>
       <r>   -9.8294    1.0000 </r>
       <r>   -9.8168    1.0000 </r>
       <r>   -9.5990    1.0000 </r>
       <r>   -9.1661    1.0000 </r>
       <r>   -9.1557    1.0000 </r>
       <r>   -8.8369    1.0000 </r>
       <r>   -8.8114    1.0000 </r>
       <r>   -7.8699    1.0000 </r>
       <r>   -7.6972    1.0000 </r>
       <r>   -7.6695    1.0000 </r>
       <r>   -7.0960    1.0000 </r>
       <r>   -6.6715    1.0000 </r>
       <r>   -6.6552    1.0000 </r>
       <r>   -5.8961    1.0000 </r>
       <r>   -5.0144    1.0000 </r>
       <r>   -5.0037    1.0000 </r>
       <r>   -4.6652    1.0000 </r>
       <r>   -1.2399    0.0000 </r>
       <r>   -1.0240    0.0000 </r>
       <r>   -1.0122    0.0000 </r>
       <r>    0.5347    0.0000 </r>
       <r>    1.3911    0.0000 </r>
       <r>    1.4693    0.0000 </r>
       <r>    1.4877    0.0000 </r>
       <r>    1.8995    0.0000 </r>
       <r>    1.9011    0.0000 </r>
       <r>    2.1942    0.0000 </r>
      </set>
     </set>
    </set>
   </array>
  </eigenvalues>
  <separator name="orbital magnetization" >
   <v name="MAGDIPOLOUT">      0.00000000      0.00000000      0.00000000</v>
  </separator>
  <dos>
   <i name="efermi">     -2.75522465 </i>
   <total>
    <array>
     <dimension dim="1">gridpoints</dimension>
     <dimension dim="2">spin</dimension>
     <field>energy</field>
     <field>total</field>
     <field>integrated</field>
     <set>
      <set comment="spin 1">
       <r>   -23.5113     0.0000     0.0000 </r>
       <r>   -23.4192     0.0000     0.0000 </r>
       <r>   -23.3272     0.0000     0.0000 </r>
       <r>   -23.2351     0.0000     0.0000 </r>
       <r>   -23.1430     0.0000     0.0000 </r>
       <r>   -23.0510     0.0000     0.0000 </r>
       <r>   -22.9589     0.0000     0.0000 </r>
       <r>   -22.8669     0.0000     0.0000 </r>
       <r>   -22.7748     0.0000     0.0000 </r>
       <r>   -22.6827     0.0000     0.0000 </r>
       <r>   -22.5907     0.0000     0.0000 </r>
       <r>   -22.4986     0.0000     0.0000 </r>
       <r>   -22.4066     0.0000     0.0000 </r>
       <r>   -22.3145     0.0236     0.0022 </r>
       <r>   -22.2224     1.1017     0.1036 </r>
       <r>   -22.1304     2.3658     0.3214 </r>
       <r>   -22.0383     3.5653     0.6496 </r>
       <r>   -21.9463     1.5380     0.7912 </r>
       <r>   -21.8542     4.0183     1.1611 </r>
       <r>   -21.7622     2.8376     1.4224 </r>
       <r>   -21.6701     1.1183     1.5253 </r>
       <r>   -21.5780     3.8486     1.8796 </r>
       <r>   -21.4860     3.9050     2.2391 </r>
       <r>   -21.3939     1.6538     2.3913 </r>
       <r>   -21.3019     1.3371     2.5144 </r>
       <r>   -21.2098     4.2554     2.9062 </r>
       <r>   -21.1177     4.6049     3.3301 </r>
       <r>   -21.0257     1.5158     3.4696 </r>
       <r>   -20.9336     1.1212     3.5729 </r>
       <r>   -20.8416     2.3766     3.7917 </r>
       <r>   -20.7495     5.5248     4.3003 </r>
       <r>   -20.6574     2.1242     4.4958 </r>
       <r>   -20.5654     4.2776     4.8896 </r>
       <r>   -20.4733     0.5344     4.9388 </r>
       <r>   -20.3813     0.5329     4.9879 </r>
       <r>   -20.2892     5.1602     5.4629 </r>
       <r>   -20.1971     4.6708     5.8929 </r>
       <r>   -20.1051     2.9006     6.1599 </r>
       <r>   -20.0130     1.1578     6.2665 </r>
       <r>   -19.9210     3.9937     6.6342 </r>
       <r>   -19.8289     0.2102     6.6535 </r>
       <r>   -19.7369     1.3379     6.7767 </r>
       <r>   -19.6448     7.6101     7.4773 </r>
       <r>   -19.5527     2.6244     7.7189 </r>
       <r>   -19.4607     4.1121     8.0974 </r>
       <r>   -19.3686     0.2798     8.1232 </r>
       <r>   -19.2766     1.8361     8.2922 </r>
       <r>   -19.1845     3.3992     8.6051 </r>
       <r>   -19.0924     1.0584     8.7026 </r>
       <r>   -19.0004     4.7077     9.1360 </r>
       <r>   -18.9083     5.7879     9.6688 </r>
       <r>   -18.8163     2.0461     9.8571 </r>
       <r>   -18.7242     4.0746    10.2323 </r>
       <r>   -18.6321     1.0226    10.3264 </r>
       <r>   -18.5401     0.0467    10.3307 </r>
       <r>   -18.4480     3.0328    10.6099 </r>
       <r>   -18.3560     3.9880    10.9770 </r>
       <r>   -18.2639     5.5892    11.4915 </r>
       <r>   -18.1718     2.5233    11.7238 </r>
       <r>   -18.0798     4.2093    12.1113 </r>
       <r>   -17.9877     1.9686    12.2926 </r>
       <r>   -17.8957     3.7808    12.6406 </r>
       <r>   -17.8036     1.4615    12.7752 </r>
       <r>   -17.7116     0.0064    12.7758 </r>
       <r>   -17.6195     1.7554    12.9374 </r>
       <r>   -17.5274     8.6963    13.7379 </r>
       <r>   -17.4354     4.9766    14.1961 </r>
       <r>   -17.3433     1.3865    14.3237 </r>
       <r>   -17.2513     4.8452    14.7698 </r>
       <r>   -17.1592     2.3442    14.9856 </r>
       <r>   -17.0671     3.8457    15.3396 </r>
       <r>   -16.9751     3.0825    15.6234 </r>
       <r>   -16.8830     0.9874    15.7143 </r>
       <r>   -16.7910     1.5406    15.8561 </r>
       <r>   -16.6989     8.7281    16.6596 </r>
       <r>   -16.6068     5.5029    17.1662 </r>
       <r>   -16.5148     0.1898    17.1837 </r>
       <r>   -16.4227     0.0000    17.1837 </r>
       <r>   -16.3307     0.0000    17.1837 </r>
       <r>   -16.2386     0.0404    17.1874 </r>
       <r>   -16.1466     1.7292    17.3466 </r>
       <r>   -16.0545     1.1526    17.4527 </r>
       <r>   -15.9624     4.7882    17.8935 </r>
       <r>   -15.8704     2.8559    18.1564 </r>
       <r>   -15.7783     0.5613    18.2081 </r>
       <r>   -15.6863     3.2233    18.5048 </r>
       <r>   -15.5942     5.3510    18.9974 </r>
       <r>   -15.5021     1.5748    19.1424 </r>
       <r>   -15.4101     0.0595    19.1479 </r>
       <r>   -15.3180     1.6407    19.2989 </r>
       <r>   -15.2260     9.9486    20.2148 </r>
       <r>   -15.1339     3.4228    20.5299 </r>
       <r>   -15.0418     0.9935    20.6213 </r>
       <r>   -14.9498     4.8982    21.0722 </r>
       <r>   -14.8577     4.4385    21.4809 </r>
       <r>   -14.7657     1.2973    21.6003 </r>
       <r>   -14.6736     2.8258    21.8604 </r>
       <r>   -14.5815     8.5202    22.6448 </r>
       <r>   -14.4895     0.9762    22.7346 </r>
       <r>   -14.3974     0.0949    22.7434 </r>
       <r>   -14.3054     3.7516    23.0888 </r>
       <r>   -14.2133     4.1551    23.4713 </r>
       <r>   -14.1213     4.4821    23.8839 </r>
       <r>   -14.0292     0.8924    23.9660 </r>
       <r>   -13.9371     3.3824    24.2774 </r>
       <r>   -13.8451     1.8580    24.4485 </r>
       <r>   -13.7530     1.2567    24.5642 </r>
       <r>   -13.6610     4.0015    24.9325 </r>
       <r>   -13.5689     2.3097    25.1452 </r>
       <r>   -13.4768     4.3311    25.5439 </r>
       <r>   -13.3848     1.4186    25.6745 </r>
       <r>   -13.2927     2.4368    25.8988 </r>
       <r>   -13.2007     3.6906    26.2386 </r>
       <r>   -13.1086     0.0692    26.2449 </r>
       <r>   -13.0165     0.7990    26.3185 </r>
       <r>   -12.9245     9.4276    27.1864 </r>
       <r>   -12.8324     5.0473    27.6510 </r>
       <r>   -12.7404     3.2852    27.9535 </r>
       <r>   -12.6483     0.3583    27.9865 </r>
       <r>   -12.5562     2.1342    28.1829 </r>
       <r>   -12.4642     0.2548    28.2064 </r>
       <r>   -12.3721     1.5790    28.3518 </r>
       <r>   -12.2801     7.9390    29.0826 </r>
       <r>   -12.1880     8.7019    29.8837 </r>
       <r>   -12.0960     2.9992    30.1598 </r>
       <r>   -12.0039     0.0464    30.1641 </r>
       <r>   -11.9118     1.8952    30.3385 </r>
       <r>   -11.8198     3.3947    30.6511 </r>
       <r>   -11.7277     3.6672    30.9886 </r>
       <r>   -11.6357     6.4787    31.5851 </r>
       <r>   -11.5436     0.5167    31.6326 </r>
       <r>   -11.4515     0.2280    31.6536 </r>
       <r>   -11.3595     6.4753    32.2497 </r>
       <r>   -11.2674     6.0517    32.8069 </r>
       <r>   -11.1754     3.3776    33.1178 </r>
       <r>   -11.0833     5.5613    33.6298 </r>
       <r>   -10.9912     4.7015    34.0626 </r>
       <r>   -10.8992     2.8310    34.3232 </r>
       <r>   -10.8071     0.0363    34.3265 </r>
       <r>   -10.7151     0.0032    34.3268 </r>
       <r>   -10.6230     1.4891    34.4639 </r>
       <r>   -10.5309    11.0081    35.4773 </r>
       <r>   -10.4389    10.6844    36.4609 </r>
       <r>   -10.3468     2.8222    36.7207 </r>
       <r>   -10.2548     5.9379    37.2674 </r>
       <r>   -10.1627     2.0522    37.4563 </r>
       <r>   -10.0707     4.2775    37.8501 </r>
       <r>    -9.9786     4.9749    38.3080 </r>
       <r>    -9.8865    10.8160    39.3038 </r>
       <r>    -9.7945    10.0157    40.2258 </r>
       <r>    -9.7024     6.2144    40.7979 </r>
       <r>    -9.6104     8.8050    41.6085 </r>
       <r>    -9.5183     8.8241    42.4208 </r>
       <r>    -9.4262     5.5238    42.9293 </r>
       <r>    -9.3342     3.7750    43.2768 </r>
       <r>    -9.2421    10.3889    44.2332 </r>
       <r>    -9.1501    11.9523    45.3335 </r>
       <r>    -9.0580    14.9057    46.7057 </r>
       <r>    -8.9659     6.8049    47.3322 </r>
       <r>    -8.8739     3.0174    47.6100 </r>
       <r>    -8.7818    12.4912    48.7599 </r>
       <r>    -8.6898     6.8346    49.3891 </r>
       <r>    -8.5977     7.4212    50.0723 </r>
       <r>    -8.5056     7.0742    50.7235 </r>
       <r>    -8.4136     8.0664    51.4661 </r>
       <r>    -8.3215     3.3398    51.7736 </r>
       <r>    -8.2295     4.0367    52.1452 </r>
       <r>    -8.1374     5.5171    52.6531 </r>
       <r>    -8.0454    13.8306    53.9263 </r>
       <r>    -7.9533     5.2378    54.4085 </r>
       <r>    -7.8612     4.9795    54.8669 </r>
       <r>    -7.7692     1.1712    54.9747 </r>
       <r>    -7.6771     8.4185    55.7497 </r>
       <r>    -7.5851     7.0153    56.3956 </r>
       <r>    -7.4930     5.1549    56.8701 </r>
       <r>    -7.4009     2.9219    57.1391 </r>
       <r>    -7.3089     7.3617    57.8168 </r>
       <r>    -7.2168     2.2608    58.0249 </r>
       <r>    -7.1248    10.0314    58.9484 </r>
       <r>    -7.0327     7.8384    59.6700 </r>
       <r>    -6.9406     3.4406    59.9868 </r>
       <r>    -6.8486     3.5903    60.3173 </r>
       <r>    -6.7565     0.1430    60.3304 </r>
       <r>    -6.6645     4.3107    60.7273 </r>
       <r>    -6.5724    10.5548    61.6989 </r>
       <r>    -6.4803     8.8363    62.5124 </r>
       <r>    -6.3883     4.1184    62.8915 </r>
       <r>    -6.2962     4.0345    63.2630 </r>
       <r>    -6.2042     1.7790    63.4267 </r>
       <r>    -6.1121     4.9522    63.8826 </r>
       <r>    -6.0201     4.8144    64.3258 </r>
       <r>    -5.9280     2.8563    64.5888 </r>
       <r>    -5.8359     7.9406    65.3198 </r>
       <r>    -5.7439     7.1460    65.9776 </r>
       <r>    -5.6518     3.4521    66.2954 </r>
       <r>    -5.5598     3.7822    66.6436 </r>
       <r>    -5.4677     1.4851    66.7803 </r>
       <r>    -5.3756     3.1906    67.0741 </r>
       <r>    -5.2836     2.0887    67.2663 </r>
       <r>    -5.1915     1.5229    67.4065 </r>
       <r>    -5.0995     3.2336    67.7042 </r>
       <r>    -5.0074    15.6250    69.1426 </r>
       <r>    -4.9153     6.1569    69.7094 </r>
       <r>    -4.8233     0.0528    69.7143 </r>
       <r>    -4.7312     0.1368    69.7269 </r>
       <r>    -4.6392     2.0635    69.9169 </r>
       <r>    -4.5471     0.4629    69.9595 </r>
       <r>    -4.4551     1.4156    70.0898 </r>
       <r>    -4.3630     3.9645    70.4547 </r>
       <r>    -4.2709     5.0536    70.9200 </r>
       <r>    -4.1789     2.8276    71.1803 </r>
       <r>    -4.0868     0.0368    71.1837 </r>
       <r>    -3.9948     0.0101    71.1846 </r>
       <r>    -3.9027     1.2216    71.2971 </r>
       <r>    -3.8106     1.4110    71.4270 </r>
       <r>    -3.7186     0.0175    71.4286 </r>
       <r>    -3.6265     0.0138    71.4298 </r>
       <r>    -3.5345     2.1875    71.6312 </r>
       <r>    -3.4424     3.0704    71.9139 </r>
       <r>    -3.3503     0.0488    71.9184 </r>
       <r>    -3.2583     0.0000    71.9184 </r>
       <r>    -3.1662     0.0000    71.9184 </r>
       <r>    -3.0742     0.0000    71.9184 </r>
       <r>    -2.9821     0.0000    71.9184 </r>
       <r>    -2.8900     0.0002    71.9184 </r>
       <r>    -2.7980     0.2196    71.9386 </r>
       <r>    -2.7059     1.3930    72.0668 </r>
       <r>    -2.6139     0.1605    72.0816 </r>
       <r>    -2.5218     0.0001    72.0816 </r>
       <r>    -2.4298     0.0000    72.0816 </r>
       <r>    -2.3377     0.0000    72.0816 </r>
       <r>    -2.2456     0.0000    72.0816 </r>
       <r>    -2.1536     0.0001    72.0816 </r>
       <r>    -2.0615     0.2985    72.1091 </r>
       <r>    -1.9695     4.1535    72.4915 </r>
       <r>    -1.8774     0.8674    72.5713 </r>
       <r>    -1.7853     0.0521    72.5761 </r>
       <r>    -1.6933     1.7654    72.7387 </r>
       <r>    -1.6012     0.8406    72.8160 </r>
       <r>    -1.5092     0.0032    72.8163 </r>
       <r>    -1.4171     0.0029    72.8166 </r>
       <r>    -1.3250     1.9201    72.9934 </r>
       <r>    -1.2330    11.4247    74.0451 </r>
       <r>    -1.1409     2.8059    74.3034 </r>
       <r>    -1.0489     3.5038    74.6260 </r>
       <r>    -0.9568     5.8275    75.1624 </r>
       <r>    -0.8647     1.7853    75.3268 </r>
       <r>    -0.7727     4.2575    75.7187 </r>
       <r>    -0.6806     3.3534    76.0274 </r>
       <r>    -0.5886     4.7810    76.4676 </r>
       <r>    -0.4965     2.9866    76.7425 </r>
       <r>    -0.4045     3.7515    77.0879 </r>
       <r>    -0.3124     3.3505    77.3963 </r>
       <r>    -0.2203     5.1994    77.8750 </r>
       <r>    -0.1283     0.9116    77.9589 </r>
       <r>    -0.0362     0.0034    77.9592 </r>
       <r>     0.0558     0.5340    78.0084 </r>
       <r>     0.1479     4.2505    78.3997 </r>
       <r>     0.2400     1.4976    78.5375 </r>
       <r>     0.3320     4.1638    78.9208 </r>
       <r>     0.4241     3.6373    79.2557 </r>
       <r>     0.5161     3.0943    79.5405 </r>
       <r>     0.6082     3.6474    79.8763 </r>
       <r>     0.7003     1.3285    79.9986 </r>
       <r>     0.7923     5.8436    80.5366 </r>
       <r>     0.8844     5.9039    81.0801 </r>
       <r>     0.9764     1.5004    81.2182 </r>
       <r>     1.0685     4.2729    81.6116 </r>
       <r>     1.1606     1.8164    81.7788 </r>
       <r>     1.2526     5.6852    82.3022 </r>
       <r>     1.3447     2.0924    82.4948 </r>
       <r>     1.4367     6.8950    83.1295 </r>
       <r>     1.5288    14.0755    84.4253 </r>
       <r>     1.6208     4.4788    84.8376 </r>
       <r>     1.7129     4.6461    85.2653 </r>
       <r>     1.8050     3.3572    85.5744 </r>
       <r>     1.8970     8.7833    86.3830 </r>
       <r>     1.9891     8.9032    87.2026 </r>
       <r>     2.0811     9.2318    88.0525 </r>
       <r>     2.1732     6.8039    88.6788 </r>
       <r>     2.2653     7.0081    89.3240 </r>
       <r>     2.3573     7.4148    90.0066 </r>
       <r>     2.4494     5.6949    90.5309 </r>
       <r>     2.5414     3.4076    90.8446 </r>
       <r>     2.6335     2.9892    91.1197 </r>
       <r>     2.7256     2.3142    91.3328 </r>
       <r>     2.8176     4.5993    91.7562 </r>
       <r>     2.9097     2.5185    91.9880 </r>
       <r>     3.0017     0.1299    92.0000 </r>
       <r>     3.0938     0.0000    92.0000 </r>
       <r>     3.1859     0.0000    92.0000 </r>
       <r>     3.2779     0.0000    92.0000 </r>
       <r>     3.3700     0.0000    92.0000 </r>
       <r>     3.4620     0.0000    92.0000 </r>
       <r>     3.5541     0.0000    92.0000 </r>
       <r>     3.6461     0.0000    92.0000 </r>
       <r>     3.7382     0.0000    92.0000 </r>
       <r>     3.8303     0.0000    92.0000 </r>
       <r>     3.9223     0.0000    92.0000 </r>
       <r>     4.0144     0.0000    92.0000 </r>
       <r>     4.1064     0.0000    92.0000 </r>
      </set>
     </set>
    </array>
   </total>
  </dos>
 </calculation>
 <structure name="finalpos" >
  <crystal>
   <varray name="basis" >
    <v>       7.40170591       0.00000000       0.00000000 </v>
    <v>      -3.70085295       6.41006527       0.00000000 </v>
    <v>       0.00000000       0.00000000      20.00000000 </v>
   </varray>
   <i name="volume">    948.90835877 </i>
   <varray name="rec_basis" >
    <v>       0.13510399       0.07800233       0.00000000 </v>
    <v>       0.00000000       0.15600465       0.00000000 </v>
    <v>       0.00000000       0.00000000       0.05000000 </v>
   </varray>
  </crystal>
  <varray name="positions" >
   <v>       0.99921998       0.99843995       0.49950000 </v>
   <v>       0.33333333       0.00000000       0.50000000 </v>
   <v>       0.66666667       0.00000000       0.50000000 </v>
   <v>       0.00000000       0.33333333       0.50000000 </v>
   <v>       0.33333333       0.33333333       0.50000000 </v>
   <v>       0.66666667       0.33333333       0.50000000 </v>
   <v>       0.00000000       0.66666667       0.50000000 </v>
   <v>       0.33333333       0.66666667       0.50000000 </v>
   <v>       0.66666667       0.66666667       0.50000000 </v>
   <v>       0.22222222       0.11111111       0.50000000 </v>
   <v>       0.55555556       0.11111111       0.50000000 </v>
   <v>       0.88888889       0.11111111       0.50000000 </v>
   <v>       0.22222222       0.44444444       0.50000000 </v>
   <v>       0.55555556       0.44444444       0.50000000 </v>
   <v>       0.88888889       0.44444444       0.50000000 </v>
   <v>       0.22222222       0.77777778       0.50000000 </v>
   <v>       0.55555556       0.77777778       0.50000000 </v>
   <v>       0.88888889       0.77777778       0.50000000 </v>
  </varray>
 </structure>
</modeling>
