<?xml version="1.0" encoding="ISO-8859-1"?>
<modeling>
 <generator>
  <i name="program" type="string">vasp </i>
  <i name="version" type="string">6.4.1  </i>
  <i name="subversion" type="string">05Apr23 (build Feb 12 2025 00:37:39) complex                          parallel </i>
  <i name="platform" type="string">LinuxIFC </i>
  <i name="date" type="string">2025 02 14 </i>
  <i name="time" type="string">05:05:22 </i>
 </generator>
 <incar>
  <i type="string" name="SYSTEM">SCF</i>
  <i type="int" name="ISTART">     0</i>
  <i type="int" name="ICHARG">     2</i>
  <i type="int" name="NELM">    60</i>
  <i type="int" name="NELMIN">     6</i>
  <i name="EDIFF">      0.00000100</i>
  <i name="EDIFFG">     -0.00000100</i>
  <i name="ENCUT">    600.00000000</i>
  <i type="string" name="LREAL">Auto</i>
  <i type="int" name="ISMEAR">     0</i>
  <i name="SIGMA">      0.05000000</i>
  <i type="logical" name="LWAVE"> F  </i>
  <i type="logical" name="LCHARG"> F  </i>
 </incar>
 <primitive_cell>
  <structure name="primitive_cell" >
   <crystal>
    <varray name="basis" >
     <v>       7.40170591       0.00000000       0.00000000 </v>
     <v>      -3.70085295       6.41006527       0.00000000 </v>
     <v>       0.00000000       0.00000000      20.00000000 </v>
    </varray>
    <i name="volume">    948.90835877 </i>
    <varray name="rec_basis" >
     <v>       0.13510399       0.07800233       0.00000000 </v>
     <v>       0.00000000       0.15600465       0.00000000 </v>
     <v>       0.00000000       0.00000000       0.05000000 </v>
    </varray>
   </crystal>
   <varray name="positions" >
    <v>       0.00270208       0.00000000       0.50000000 </v>
    <v>       0.33333333       0.00000000       0.50000000 </v>
    <v>       0.66666667       0.00000000       0.50000000 </v>
    <v>       1.00000000       0.33333333       0.50000000 </v>
    <v>       0.33333333       0.33333333       0.50000000 </v>
    <v>       0.66666667       0.33333333       0.50000000 </v>
    <v>       1.00000000       0.66666667       0.50000000 </v>
    <v>       0.33333333       0.66666667       0.50000000 </v>
    <v>       0.66666667       0.66666667       0.50000000 </v>
    <v>       0.22222222       0.11111111       0.50000000 </v>
    <v>       0.55555556       0.11111111       0.50000000 </v>
    <v>       0.88888889       0.11111111       0.50000000 </v>
    <v>       0.22222222       0.44444444       0.50000000 </v>
    <v>       0.55555556       0.44444444       0.50000000 </v>
    <v>       0.88888889       0.44444444       0.50000000 </v>
    <v>       0.22222222       0.77777778       0.50000000 </v>
    <v>       0.55555556       0.77777778       0.50000000 </v>
    <v>       0.88888889       0.77777778       0.50000000 </v>
   </varray>
  </structure>
  <varray name="primitive_index" >
   <v type="int" >        1 </v>
   <v type="int" >        2 </v>
   <v type="int" >        3 </v>
   <v type="int" >        4 </v>
   <v type="int" >        5 </v>
   <v type="int" >        6 </v>
   <v type="int" >        7 </v>
   <v type="int" >        8 </v>
   <v type="int" >        9 </v>
   <v type="int" >       10 </v>
   <v type="int" >       11 </v>
   <v type="int" >       12 </v>
   <v type="int" >       13 </v>
   <v type="int" >       14 </v>
   <v type="int" >       15 </v>
   <v type="int" >       16 </v>
   <v type="int" >       17 </v>
   <v type="int" >       18 </v>
  </varray>
 </primitive_cell>
 <kpoints>
  <generation param="Gamma">
   <v type="int" name="divisions">       7        7        1 </v>
   <v name="usershift">      0.00000000       0.00000000       0.00000000 </v>
   <v name="genvec1">      0.14285714       0.00000000       0.00000000 </v>
   <v name="genvec2">      0.00000000       0.14285714       0.00000000 </v>
   <v name="genvec3">      0.00000000       0.00000000       1.00000000 </v>
   <v name="shift">      0.00000000       0.00000000       0.00000000 </v>
  </generation>
  <varray name="kpointlist" >
   <v>       0.00000000       0.00000000       0.00000000 </v>
   <v>       0.14285714       0.00000000       0.00000000 </v>
   <v>       0.00000000       0.14285714       0.00000000 </v>
   <v>      -0.14285714       0.14285714       0.00000000 </v>
   <v>       0.28571429       0.00000000       0.00000000 </v>
   <v>       0.00000000       0.28571429       0.00000000 </v>
   <v>      -0.28571429       0.28571429       0.00000000 </v>
   <v>       0.42857143       0.00000000       0.00000000 </v>
   <v>       0.00000000       0.42857143       0.00000000 </v>
   <v>      -0.42857143       0.42857143       0.00000000 </v>
   <v>       0.14285714       0.14285714       0.00000000 </v>
   <v>      -0.14285714       0.28571429       0.00000000 </v>
   <v>      -0.28571429       0.14285714       0.00000000 </v>
   <v>       0.28571429       0.14285714       0.00000000 </v>
   <v>      -0.14285714       0.42857143       0.00000000 </v>
   <v>      -0.42857143       0.28571429       0.00000000 </v>
   <v>      -0.28571429       0.42857143       0.00000000 </v>
   <v>       0.14285714       0.28571429       0.00000000 </v>
   <v>       0.42857143      -0.14285714       0.00000000 </v>
   <v>       0.42857143       0.14285714       0.00000000 </v>
   <v>      -0.14285714      -0.42857143       0.00000000 </v>
   <v>       0.42857143       0.42857143       0.00000000 </v>
   <v>       0.28571429       0.28571429       0.00000000 </v>
   <v>      -0.28571429      -0.42857143       0.00000000 </v>
   <v>       0.42857143       0.28571429       0.00000000 </v>
  </varray>
  <varray name="weights" >
   <v>       0.02040816 </v>
   <v>       0.04081633 </v>
   <v>       0.04081633 </v>
   <v>       0.04081633 </v>
   <v>       0.04081633 </v>
   <v>       0.04081633 </v>
   <v>       0.04081633 </v>
   <v>       0.04081633 </v>
   <v>       0.04081633 </v>
   <v>       0.04081633 </v>
   <v>       0.04081633 </v>
   <v>       0.04081633 </v>
   <v>       0.04081633 </v>
   <v>       0.04081633 </v>
   <v>       0.04081633 </v>
   <v>       0.04081633 </v>
   <v>       0.04081633 </v>
   <v>       0.04081633 </v>
   <v>       0.04081633 </v>
   <v>       0.04081633 </v>
   <v>       0.04081633 </v>
   <v>       0.04081633 </v>
   <v>       0.04081633 </v>
   <v>       0.04081633 </v>
   <v>       0.04081633 </v>
  </varray>
 </kpoints>
 <parameters>
  <separator name="general" >
   <i type="string" name="SYSTEM">SCF</i>
   <i type="logical" name="LCOMPAT"> F  </i>
  </separator>
  <separator name="electronic" >
   <i type="string" name="PREC">normal</i>
   <i name="ENMAX">    600.00000000</i>
   <i name="ENAUG">    644.87300000</i>
   <i name="EDIFF">      0.00000100</i>
   <i type="int" name="IALGO">    38</i>
   <i type="int" name="IWAVPR">    10</i>
   <i type="int" name="NBANDS">    46</i>
   <i type="int" name="NBANDSLOW">    -1</i>
   <i type="int" name="NBANDSHIGH">    -1</i>
   <i name="NELECT">     72.00000000</i>
   <i type="int" name="TURBO">     0</i>
   <i type="int" name="IRESTART">     0</i>
   <i type="int" name="NREBOOT">     0</i>
   <i type="int" name="NMIN">     0</i>
   <i name="EREF">      0.00000000</i>
   <separator name="electronic smearing" >
    <i type="int" name="ISMEAR">     0</i>
    <i name="SIGMA">      0.05000000</i>
    <i name="KSPACING">      0.50000000</i>
    <i type="logical" name="KGAMMA"> T  </i>
    <i type="logical" name="KBLOWUP"> T  </i>
   </separator>
   <separator name="electronic projectors" >
    <i type="logical" name="LREAL"> T  </i>
    <v name="ROPT">     -0.00050000</v>
    <i type="int" name="LMAXPAW">  -100</i>
    <i type="int" name="LMAXMIX">     2</i>
    <i type="logical" name="NLSPLINE"> F  </i>
   </separator>
   <separator name="electronic startup" >
    <i type="int" name="ISTART">     0</i>
    <i type="int" name="ICHARG">     2</i>
    <i type="int" name="INIWAV">     1</i>
   </separator>
   <separator name="electronic spin" >
    <i type="int" name="ISPIN">     1</i>
    <i type="logical" name="LNONCOLLINEAR"> F  </i>
    <v name="MAGMOM">      1.00000000      1.00000000      1.00000000      1.00000000      1.00000000      1.00000000      1.00000000      1.00000000      1.00000000      1.00000000      1.00000000      1.00000000      1.00000000      1.00000000      1.00000000      1.00000000      1.00000000      1.00000000</v>
    <i name="NUPDOWN">     -1.00000000</i>
    <i type="logical" name="LSORBIT"> F  </i>
    <v name="SAXIS">      0.00000000      0.00000000      1.00000000</v>
    <i type="logical" name="LSPIRAL"> F  </i>
    <v name="QSPIRAL">      0.00000000      0.00000000      0.00000000</v>
    <i type="logical" name="LZEROZ"> F  </i>
   </separator>
   <separator name="electronic exchange-correlation" >
    <i type="logical" name="LASPH"> F  </i>
    <i type="logical" name="LMETAGGA"> F  </i>
   </separator>
   <separator name="electronic convergence" >
    <i type="int" name="NELM">    60</i>
    <i type="int" name="NELMDL">    -5</i>
    <i type="int" name="NELMIN">     6</i>
    <i name="ENINI">    600.00000000</i>
    <separator name="electronic convergence detail" >
     <i type="logical" name="LDIAG"> T  </i>
     <i type="logical" name="LSUBROT"> F  </i>
     <i name="WEIMIN">      0.00000000</i>
     <i name="EBREAK">      0.00000000</i>
     <i name="DEPER">      0.30000000</i>
     <i type="int" name="NRMM">     4</i>
     <i name="TIME">      0.40000000</i>
    </separator>
   </separator>
   <separator name="electronic mixer" >
    <i name="AMIX">      0.40000000</i>
    <i name="BMIX">      1.00000000</i>
    <i name="AMIN">      0.10000000</i>
    <i name="AMIX_MAG">      1.60000000</i>
    <i name="BMIX_MAG">      1.00000000</i>
    <separator name="electronic mixer details" >
     <i type="int" name="IMIX">     4</i>
     <i type="logical" name="MIXFIRST"> F  </i>
     <i type="int" name="MAXMIX">   -45</i>
     <i name="WC">    100.00000000</i>
     <i type="int" name="INIMIX">     1</i>
     <i type="int" name="MIXPRE">     1</i>
     <i type="int" name="MREMOVE">     5</i>
    </separator>
   </separator>
   <separator name="electronic dipolcorrection" >
    <i type="logical" name="LDIPOL"> F  </i>
    <i type="logical" name="LMONO"> F  </i>
    <i type="int" name="IDIPOL">     0</i>
    <i name="EPSILON">      1.00000000</i>
    <v name="DIPOL">   -100.00000000   -100.00000000   -100.00000000</v>
    <i name="EFIELD">      0.00000000</i>
   </separator>
  </separator>
  <separator name="grids" >
   <i type="int" name="NGX">    48</i>
   <i type="int" name="NGY">    48</i>
   <i type="int" name="NGZ">   120</i>
   <i type="int" name="NGXF">    96</i>
   <i type="int" name="NGYF">    96</i>
   <i type="int" name="NGZF">   240</i>
   <i type="logical" name="ADDGRID"> F  </i>
  </separator>
  <separator name="ionic" >
   <i type="int" name="NSW">     0</i>
   <i type="int" name="IBRION">    -1</i>
   <i type="int" name="MDALGO">     0</i>
   <i type="int" name="ISIF">     2</i>
   <i name="PSTRESS">      0.00000000</i>
   <i name="EDIFFG">     -0.00000100</i>
   <i type="int" name="NFREE">     0</i>
   <i name="POTIM">      0.50000000</i>
   <i name="SMASS">     -3.00000000</i>
   <i name="SCALEE">      1.00000000</i>
  </separator>
  <separator name="ionic md" >
   <i name="TEBEG">      0.00010000</i>
   <i name="TEEND">      0.00010000</i>
   <i type="int" name="NBLOCK">     1</i>
   <i type="int" name="KBLOCK">     1</i>
   <i type="int" name="NPACO">   256</i>
   <i name="APACO">     10.00000000</i>
  </separator>
  <separator name="symmetry" >
   <i type="int" name="ISYM">     2</i>
   <i name="SYMPREC">      0.00001000</i>
  </separator>
  <separator name="dos" >
   <i type="int" name="LORBIT">     0</i>
   <v name="RWIGS">     -1.00000000</v>
   <i type="int" name="NEDOS">   301</i>
   <i name="EMIN">     10.00000000</i>
   <i name="EMAX">    -10.00000000</i>
   <i name="EFERMI">      0.00000000</i>
  </separator>
  <separator name="writing" >
   <i type="int" name="NWRITE">     2</i>
   <i type="logical" name="LWAVE"> F  </i>
   <i type="logical" name="LDOWNSAMPLE"> F  </i>
   <i type="logical" name="LCHARG"> F  </i>
   <i type="logical" name="LPARD"> F  </i>
   <i type="logical" name="LVTOT"> F  </i>
   <i type="logical" name="LVHAR"> F  </i>
   <i type="logical" name="LELF"> F  </i>
   <i type="logical" name="LOPTICS"> F  </i>
   <v name="STM">      0.00000000      0.00000000      0.00000000      0.00000000      0.00000000      0.00000000      0.00000000</v>
  </separator>
  <separator name="performance" >
   <i type="int" name="NPAR">     2</i>
   <i type="int" name="NSIM">     4</i>
   <i type="int" name="NBLK">    -1</i>
   <i type="logical" name="LPLANE"> T  </i>
   <i type="logical" name="LSCALAPACK"> T  </i>
   <i type="logical" name="LSCAAWARE"> F  </i>
   <i type="logical" name="LSCALU"> F  </i>
   <i type="logical" name="LASYNC"> F  </i>
   <i type="logical" name="LORBITALREAL"> F  </i>
  </separator>
  <separator name="miscellaneous" >
   <i type="int" name="IDIOT">     3</i>
   <i type="int" name="PHON_NSTRUCT">    -1</i>
   <i type="logical" name="LMUSIC"> F  </i>
   <v name="POMASS">     12.01100000</v>
   <v name="DARWINR">      0.00000000</v>
   <v name="DARWINV">      1.00000000</v>
   <i type="logical" name="LCORR"> T  </i>
  </separator>
  <i type="logical" name="GGA_COMPAT"> T  </i>
  <i type="logical" name="LBERRY"> F  </i>
  <i type="int" name="ICORELEVEL">     0</i>
  <i type="logical" name="LDAU"> F  </i>
  <i type="int" name="I_CONSTRAINED_M">     0</i>
  <separator name="electronic exchange-correlation" >
   <i type="string" name="GGA">--</i>
   <i type="int" name="VOSKOWN">     0</i>
   <i type="logical" name="LHFCALC"> F  </i>
   <i type="string" name="PRECFOCK"></i>
   <i type="logical" name="LSYMGRAD"> F  </i>
   <i type="logical" name="LHFONE"> F  </i>
   <i type="logical" name="LRHFCALC"> F  </i>
   <i type="logical" name="LTHOMAS"> F  </i>
   <i type="logical" name="LMODELHF"> F  </i>
   <i type="logical" name="LFOCKACE"> F  </i>
   <i name="ENCUT4O">     -1.00000000</i>
   <i type="int" name="EXXOEP">     0</i>
   <i type="int" name="FOURORBIT">     0</i>
   <i name="AEXX">      0.00000000</i>
   <i name="HFALPHA">      0.00000000</i>
   <i name="MCALPHA">      0.00000000</i>
   <i name="ALDAX">      1.00000000</i>
   <i name="AGGAX">      1.00000000</i>
   <i name="ALDAC">      1.00000000</i>
   <i name="AGGAC">      1.00000000</i>
   <i type="int" name="NKREDX">     1</i>
   <i type="int" name="NKREDY">     1</i>
   <i type="int" name="NKREDZ">     1</i>
   <i type="logical" name="SHIFTRED"> F  </i>
   <i type="logical" name="ODDONLY"> F  </i>
   <i type="logical" name="EVENONLY"> F  </i>
   <i type="int" name="LMAXFOCK">     0</i>
   <i type="int" name="NMAXFOCKAE">     0</i>
   <i type="logical" name="LFOCKAEDFT"> F  </i>
   <i name="HFSCREEN">      0.00000000</i>
   <i name="HFSCREENC">      0.00000000</i>
   <i type="int" name="NBANDSGWLOW">     0</i>
  </separator>
  <separator name="vdW DFT" >
   <i type="logical" name="LUSE_VDW"> F  </i>
   <i type="int" name="IVDW_NL">     1</i>
   <i type="logical" name="LSPIN_VDW"> F  </i>
   <i name="Zab_VDW">     -0.84910000</i>
   <i name="PARAM1">      0.12340000</i>
   <i name="PARAM2">      1.00000000</i>
   <i name="PARAM3">      0.00000000</i>
  </separator>
  <separator name="model GW" >
   <i type="int" name="MODEL_GW">     0</i>
   <i name="MODEL_EPS0">     31.63027863</i>
   <i name="MODEL_ALPHA">      1.00000000</i>
  </separator>
  <separator name="linear response parameters" >
   <i type="logical" name="LEPSILON"> F  </i>
   <i type="logical" name="LRPA"> F  </i>
   <i type="logical" name="LNABLA"> F  </i>
   <i type="logical" name="LVEL"> F  </i>
   <i name="CSHIFT">      0.10000000</i>
   <i name="OMEGAMAX">     -1.00000000</i>
   <i name="DEG_THRESHOLD">      0.00200000</i>
   <i name="RTIME">     -0.10000000</i>
   <i name="WPLASMAI">      0.00000000</i>
   <v name="DFIELD">      0.00000000      0.00000000      0.00000000</v>
   <v name="WPLASMA">      0.00000000      0.00000000      0.00000000      0.00000000      0.00000000      0.00000000      0.00000000      0.00000000      0.00000000</v>
  </separator>
  <separator name="orbital magnetization" >
   <i type="logical" name="NUCIND"> F  </i>
   <v name="MAGPOS">      0.00000000      0.00000000      0.00000000</v>
   <i type="logical" name="LNICSALL"> T  </i>
   <i type="logical" name="ORBITALMAG"> F  </i>
   <i type="logical" name="LMAGBLOCH"> F  </i>
   <i type="logical" name="LCHIMAG"> F  </i>
   <i type="logical" name="LGAUGE"> T  </i>
   <i type="int" name="MAGATOM">     0</i>
   <v name="MAGDIPOL">      0.00000000      0.00000000      0.00000000</v>
   <v name="AVECCONST">      0.00000000      0.00000000      0.00000000</v>
  </separator>
  <separator name="response functions" >
   <i type="logical" name="LALL_IN_ONE"> F  </i>
   <i type="int" name="IALL_IN_ONE">    -1</i>
   <i type="int" name="NBANDS_WAVE">    -1</i>
   <i type="logical" name="LFINITE_TEMPERATURE"> F  </i>
   <i type="logical" name="LADDER"> F  </i>
   <i type="logical" name="LRPAFORCE"> F  </i>
   <i type="logical" name="LFXC"> F  </i>
   <i type="logical" name="LHARTREE"> T  </i>
   <i type="int" name="IBSE">     0</i>
   <v type="int" name="KPOINT">    -1     0     0     0</v>
   <i type="logical" name="LTCTC"> F  </i>
   <i type="logical" name="LTCTE"> F  </i>
   <i type="logical" name="LTETE"> F  </i>
   <i type="logical" name="LTRIPLET"> F  </i>
   <i type="logical" name="LFXCEPS"> F  </i>
   <i type="logical" name="LFXHEG"> F  </i>
   <i type="int" name="NATURALO">     2</i>
   <i type="logical" name="LHOLEGF"> F  </i>
   <i type="logical" name="L2ORDER"> F  </i>
   <i type="logical" name="LDMP1"> F  </i>
   <i type="logical" name="LMP2LT"> F  </i>
   <i type="logical" name="LSMP2LT"> F  </i>
   <i type="logical" name="LGWLF"> F  </i>
   <i name="ENCUTGW">     -1.60000002</i>
   <i name="ENCUTGWSOFT">     -1.60000002</i>
   <i name="ENCUTLF">     -1.00000000</i>
   <i type="logical" name="LESF_SPLINES"> F  </i>
   <i type="int" name="LMAXMP2">    -1</i>
   <i name="SCISSOR">      0.00000000</i>
   <i type="int" name="NOMEGA">     0</i>
   <i type="int" name="NOMEGAR">     0</i>
   <i type="int" name="NBANDSGW">    -1</i>
   <i type="int" name="NBANDSO">    -1</i>
   <i type="int" name="NBANDSV">    -1</i>
   <i type="int" name="NELMGW">     1</i>
   <i type="int" name="NELMHF">     1</i>
   <i type="int" name="DIM">     3</i>
   <i type="int" name="IESPILON">     4</i>
   <i type="int" name="ANTIRES">     0</i>
   <i name="OMEGAMAX">    -30.00000000</i>
   <i name="OMEGAMIN">    -30.00000000</i>
   <i name="OMEGATL">   -200.00000000</i>
   <i type="int" name="OMEGAGRID">     0</i>
   <i name="CSHIFT">     -0.10000000</i>
   <i type="logical" name="LSELFENERGY"> F  </i>
   <i type="logical" name="LSPECTRAL"> F  </i>
   <i type="logical" name="LSPECTRALGW"> F  </i>
   <i type="logical" name="LSINGLES"> F  </i>
   <i type="logical" name="LFERMIGW"> F  </i>
   <i type="logical" name="ODDONLYGW"> F  </i>
   <i type="logical" name="EVENONLYGW"> F  </i>
   <i type="int" name="NKREDLFX">     1</i>
   <i type="int" name="NKREDLFY">     1</i>
   <i type="int" name="NKREDLFZ">     1</i>
   <i type="int" name="MAXMEM">  2800</i>
   <i type="int" name="TELESCOPE">     0</i>
   <i type="int" name="NTAUPAR">    -1</i>
   <i type="int" name="NOMEGAPAR">    -1</i>
   <i name="DAMP_NEWTON">      0.80000001</i>
   <i name="LAMBDA">      1.00000000</i>
  </separator>
  <separator name="External order field" >
   <i name="OFIELD_KAPPA">      0.00000000</i>
   <v name="OFIELD_K">      0.00000000      0.00000000      0.00000000</v>
   <i name="OFIELD_Q6_NEAR">      0.00000000</i>
   <i name="OFIELD_Q6_FAR">      0.00000000</i>
   <i name="OFIELD_A">      0.00000000</i>
  </separator>
  <separator name="optional k-points parameters" >
   <i type="int" name="KPOINTS_OPT_MODE">     1</i>
   <i type="logical" name="LKPOINTS_OPT"> F  </i>
  </separator>
 </parameters>
 <atominfo>
  <atoms>      18 </atoms>
  <types>       1 </types>
  <array name="atoms" >
   <dimension dim="1">ion</dimension>
   <field type="string">element</field>
   <field type="int">atomtype</field>
   <set>
    <rc><c>C </c><c>   1</c></rc>
    <rc><c>C </c><c>   1</c></rc>
    <rc><c>C </c><c>   1</c></rc>
    <rc><c>C </c><c>   1</c></rc>
    <rc><c>C </c><c>   1</c></rc>
    <rc><c>C </c><c>   1</c></rc>
    <rc><c>C </c><c>   1</c></rc>
    <rc><c>C </c><c>   1</c></rc>
    <rc><c>C </c><c>   1</c></rc>
    <rc><c>C </c><c>   1</c></rc>
    <rc><c>C </c><c>   1</c></rc>
    <rc><c>C </c><c>   1</c></rc>
    <rc><c>C </c><c>   1</c></rc>
    <rc><c>C </c><c>   1</c></rc>
    <rc><c>C </c><c>   1</c></rc>
    <rc><c>C </c><c>   1</c></rc>
    <rc><c>C </c><c>   1</c></rc>
    <rc><c>C </c><c>   1</c></rc>
   </set>
  </array>
  <array name="atomtypes" >
   <dimension dim="1">type</dimension>
   <field type="int">atomspertype</field>
   <field type="string">element</field>
   <field>mass</field>
   <field>valence</field>
   <field type="string">pseudopotential</field>
   <set>
    <rc><c>  18</c><c>C </c><c>     12.01100000</c><c>      4.00000000</c><c>  PAW_PBE C 08Apr2002                   </c></rc>
   </set>
  </array>
 </atominfo>
 <structure name="initialpos" >
  <crystal>
   <varray name="basis" >
    <v>       7.40170591       0.00000000       0.00000000 </v>
    <v>      -3.70085295       6.41006527       0.00000000 </v>
    <v>       0.00000000       0.00000000      20.00000000 </v>
   </varray>
   <i name="volume">    948.90835877 </i>
   <varray name="rec_basis" >
    <v>       0.13510399       0.07800233       0.00000000 </v>
    <v>       0.00000000       0.15600465       0.00000000 </v>
    <v>       0.00000000       0.00000000       0.05000000 </v>
   </varray>
  </crystal>
  <varray name="positions" >
   <v>       0.00270208       0.00000000       0.50000000 </v>
   <v>       0.33333333       0.00000000       0.50000000 </v>
   <v>       0.66666667       0.00000000       0.50000000 </v>
   <v>       0.00000000       0.33333333       0.50000000 </v>
   <v>       0.33333333       0.33333333       0.50000000 </v>
   <v>       0.66666667       0.33333333       0.50000000 </v>
   <v>       0.00000000       0.66666667       0.50000000 </v>
   <v>       0.33333333       0.66666667       0.50000000 </v>
   <v>       0.66666667       0.66666667       0.50000000 </v>
   <v>       0.22222222       0.11111111       0.50000000 </v>
   <v>       0.55555556       0.11111111       0.50000000 </v>
   <v>       0.88888889       0.11111111       0.50000000 </v>
   <v>       0.22222222       0.44444444       0.50000000 </v>
   <v>       0.55555556       0.44444444       0.50000000 </v>
   <v>       0.88888889       0.44444444       0.50000000 </v>
   <v>       0.22222222       0.77777778       0.50000000 </v>
   <v>       0.55555556       0.77777778       0.50000000 </v>
   <v>       0.88888889       0.77777778       0.50000000 </v>
  </varray>
 </structure>
 <calculation>
  <scstep>
   <time name="dav">    5.96    4.98</time>
   <time name="total">    6.05    5.07</time>
   <energy>
    <i name="alphaZ">     28.04858418 </i>
    <i name="ewald">  11638.90277394 </i>
    <i name="hartreedc"> -13553.19275707 </i>
    <i name="XCdc">    237.17810549 </i>
    <i name="pawpsdc">   1953.39683484 </i>
    <i name="pawaedc">  -1963.64613940 </i>
    <i name="eentropy">     -0.00826214 </i>
    <i name="bandstr">   -257.74007014 </i>
    <i name="atom">   2648.70517965 </i>
    <i name="e_fr_energy">    731.64424936 </i>
    <i name="e_wo_entrp">    731.65251150 </i>
    <i name="e_0_energy">    731.64838043 </i>
   </energy>
  </scstep>
  <scstep>
   <time name="dav">    7.97    8.24</time>
   <time name="total">    7.97    8.24</time>
   <energy>
    <i name="e_fr_energy">    -23.86196923 </i>
    <i name="e_wo_entrp">    -23.86158406 </i>
    <i name="e_0_energy">    -23.86177665 </i>
   </energy>
  </scstep>
  <scstep>
   <time name="dav">    6.44    6.71</time>
   <time name="total">    6.44    6.71</time>
   <energy>
    <i name="e_fr_energy">   -172.27537333 </i>
    <i name="e_wo_entrp">   -172.27401621 </i>
    <i name="e_0_energy">   -172.27469477 </i>
   </energy>
  </scstep>
  <scstep>
   <time name="dav">    6.30    6.58</time>
   <time name="total">    6.30    6.58</time>
   <energy>
    <i name="e_fr_energy">   -177.34139344 </i>
    <i name="e_wo_entrp">   -177.33956533 </i>
    <i name="e_0_energy">   -177.34047939 </i>
   </energy>
  </scstep>
  <scstep>
   <time name="dav">    7.26    7.54</time>
   <time name="total">    7.52    7.81</time>
   <energy>
    <i name="e_fr_energy">   -177.47978926 </i>
    <i name="e_wo_entrp">   -177.47797103 </i>
    <i name="e_0_energy">   -177.47888015 </i>
   </energy>
  </scstep>
  <scstep>
   <time name="dav">    5.98    4.97</time>
   <time name="total">    6.33    5.32</time>
   <energy>
    <i name="e_fr_energy">   -169.31028597 </i>
    <i name="e_wo_entrp">   -169.30836700 </i>
    <i name="e_0_energy">   -169.30932649 </i>
   </energy>
  </scstep>
  <scstep>
   <time name="dav">    5.95    6.17</time>
   <time name="total">    6.30    6.53</time>
   <energy>
    <i name="e_fr_energy">   -166.14247684 </i>
    <i name="e_wo_entrp">   -166.14050966 </i>
    <i name="e_0_energy">   -166.14149325 </i>
   </energy>
  </scstep>
  <scstep>
   <time name="dav">    6.31    6.55</time>
   <time name="total">    6.65    6.91</time>
   <energy>
    <i name="e_fr_energy">   -166.07959283 </i>
    <i name="e_wo_entrp">   -166.07764612 </i>
    <i name="e_0_energy">   -166.07861947 </i>
   </energy>
  </scstep>
  <scstep>
   <time name="dav">    6.59    6.85</time>
   <time name="total">    6.94    7.20</time>
   <energy>
    <i name="e_fr_energy">   -166.06659063 </i>
    <i name="e_wo_entrp">   -166.06463779 </i>
    <i name="e_0_energy">   -166.06561421 </i>
   </energy>
  </scstep>
  <scstep>
   <time name="dav">    5.74    5.96</time>
   <time name="total">    6.09    6.32</time>
   <energy>
    <i name="e_fr_energy">   -166.04851354 </i>
    <i name="e_wo_entrp">   -166.04655616 </i>
    <i name="e_0_energy">   -166.04753485 </i>
   </energy>
  </scstep>
  <scstep>
   <time name="dav">    5.78    4.84</time>
   <time name="total">    6.15    5.22</time>
   <energy>
    <i name="e_fr_energy">   -166.05091189 </i>
    <i name="e_wo_entrp">   -166.04895739 </i>
    <i name="e_0_energy">   -166.04993464 </i>
   </energy>
  </scstep>
  <scstep>
   <time name="dav">    5.97    6.20</time>
   <time name="total">    6.32    6.56</time>
   <energy>
    <i name="e_fr_energy">   -166.05542296 </i>
    <i name="e_wo_entrp">   -166.05346932 </i>
    <i name="e_0_energy">   -166.05444614 </i>
   </energy>
  </scstep>
  <scstep>
   <time name="dav">    5.72    5.94</time>
   <time name="total">    6.07    6.30</time>
   <energy>
    <i name="e_fr_energy">   -166.05985329 </i>
    <i name="e_wo_entrp">   -166.05789870 </i>
    <i name="e_0_energy">   -166.05887599 </i>
   </energy>
  </scstep>
  <scstep>
   <time name="dav">    5.69    5.91</time>
   <time name="total">    6.04    6.27</time>
   <energy>
    <i name="e_fr_energy">   -166.06355895 </i>
    <i name="e_wo_entrp">   -166.06160423 </i>
    <i name="e_0_energy">   -166.06258159 </i>
   </energy>
  </scstep>
  <scstep>
   <time name="dav">    5.79    6.01</time>
   <time name="total">    6.14    6.37</time>
   <energy>
    <i name="e_fr_energy">   -166.06543211 </i>
    <i name="e_wo_entrp">   -166.06347719 </i>
    <i name="e_0_energy">   -166.06445465 </i>
   </energy>
  </scstep>
  <scstep>
   <time name="dav">    6.01    5.04</time>
   <time name="total">    6.35    5.40</time>
   <energy>
    <i name="e_fr_energy">   -166.06559775 </i>
    <i name="e_wo_entrp">   -166.06364292 </i>
    <i name="e_0_energy">   -166.06462034 </i>
   </energy>
  </scstep>
  <scstep>
   <time name="dav">    5.72    5.94</time>
   <time name="total">    6.07    6.30</time>
   <energy>
    <i name="e_fr_energy">   -166.06581113 </i>
    <i name="e_wo_entrp">   -166.06385657 </i>
    <i name="e_0_energy">   -166.06483385 </i>
   </energy>
  </scstep>
  <scstep>
   <time name="dav">    5.13    5.33</time>
   <time name="total">    5.48    5.70</time>
   <energy>
    <i name="e_fr_energy">   -166.06587788 </i>
    <i name="e_wo_entrp">   -166.06392320 </i>
    <i name="e_0_energy">   -166.06490054 </i>
   </energy>
  </scstep>
  <scstep>
   <time name="dav">    5.02    5.22</time>
   <time name="total">    5.38    5.59</time>
   <energy>
    <i name="e_fr_energy">   -166.06590877 </i>
    <i name="e_wo_entrp">   -166.06395403 </i>
    <i name="e_0_energy">   -166.06493140 </i>
   </energy>
  </scstep>
  <scstep>
   <time name="dav">    4.86    5.05</time>
   <time name="total">    5.23    5.44</time>
   <energy>
    <i name="e_fr_energy">   -166.06594184 </i>
    <i name="e_wo_entrp">   -166.06398715 </i>
    <i name="e_0_energy">   -166.06496450 </i>
   </energy>
  </scstep>
  <scstep>
   <time name="dav">    4.02    4.18</time>
   <time name="total">    4.38    4.55</time>
   <energy>
    <i name="e_fr_energy">   -166.06595074 </i>
    <i name="e_wo_entrp">   -166.06399600 </i>
    <i name="e_0_energy">   -166.06497337 </i>
   </energy>
  </scstep>
  <scstep>
   <time name="dav">    3.92    2.86</time>
   <time name="total">    4.28    3.23</time>
   <energy>
    <i name="e_fr_energy">   -166.06595502 </i>
    <i name="e_wo_entrp">   -166.06400032 </i>
    <i name="e_0_energy">   -166.06497767 </i>
   </energy>
  </scstep>
  <scstep>
   <time name="dav">    3.96    4.09</time>
   <time name="total">    4.04    4.18</time>
   <energy>
    <i name="alphaZ">     28.04858418 </i>
    <i name="ewald">  11638.90277394 </i>
    <i name="hartreedc"> -13861.54548539 </i>
    <i name="XCdc">    247.81520805 </i>
    <i name="pawpsdc">   7453.25116722 </i>
    <i name="pawaedc">  -7465.51476180 </i>
    <i name="eentropy">     -0.00195469 </i>
    <i name="bandstr">   -855.72666674 </i>
    <i name="atom">   2648.70517965 </i>
    <i name="e_fr_energy">   -166.06595557 </i>
    <i name="e_wo_entrp">   -166.06400087 </i>
    <i name="e_0_energy">   -166.06497822 </i>
   </energy>
  </scstep>
  <structure>
   <crystal>
    <varray name="basis" >
     <v>       7.40170591       0.00000000       0.00000000 </v>
     <v>      -3.70085295       6.41006527       0.00000000 </v>
     <v>       0.00000000       0.00000000      20.00000000 </v>
    </varray>
    <i name="volume">    948.90835877 </i>
    <varray name="rec_basis" >
     <v>       0.13510399       0.07800233       0.00000000 </v>
     <v>       0.00000000       0.15600465       0.00000000 </v>
     <v>       0.00000000       0.00000000       0.05000000 </v>
    </varray>
   </crystal>
   <varray name="positions" >
    <v>       0.00270208       0.00000000       0.50000000 </v>
    <v>       0.33333333       0.00000000       0.50000000 </v>
    <v>       0.66666667       0.00000000       0.50000000 </v>
    <v>       0.00000000       0.33333333       0.50000000 </v>
    <v>       0.33333333       0.33333333       0.50000000 </v>
    <v>       0.66666667       0.33333333       0.50000000 </v>
    <v>       0.00000000       0.66666667       0.50000000 </v>
    <v>       0.33333333       0.66666667       0.50000000 </v>
    <v>       0.66666667       0.66666667       0.50000000 </v>
    <v>       0.22222222       0.11111111       0.50000000 </v>
    <v>       0.55555556       0.11111111       0.50000000 </v>
    <v>       0.88888889       0.11111111       0.50000000 </v>
    <v>       0.22222222       0.44444444       0.50000000 </v>
    <v>       0.55555556       0.44444444       0.50000000 </v>
    <v>       0.88888889       0.44444444       0.50000000 </v>
    <v>       0.22222222       0.77777778       0.50000000 </v>
    <v>       0.55555556       0.77777778       0.50000000 </v>
    <v>       0.88888889       0.77777778       0.50000000 </v>
   </varray>
  </structure>
  <varray name="forces" >
   <v>      -1.20273504      -0.03140979      -0.00000000 </v>
   <v>       0.10236584      -0.02617721       0.00000000 </v>
   <v>       0.09777981       0.02538770       0.00000000 </v>
   <v>      -0.01175539      -0.08951101      -0.00000000 </v>
   <v>      -0.01188482       0.09124171      -0.00000000 </v>
   <v>       0.05797100       0.00073825      -0.00000000 </v>
   <v>      -0.01275180      -0.03846572      -0.00000000 </v>
   <v>       0.05796911       0.00079067      -0.00000000 </v>
   <v>      -0.01091258       0.03915906      -0.00000000 </v>
   <v>       0.42971219       0.12609549       0.00000000 </v>
   <v>      -0.00198301      -0.00071841       0.00000000 </v>
   <v>       0.38601269      -0.09634986       0.00000000 </v>
   <v>       0.04354065      -0.00080692      -0.00000000 </v>
   <v>      -0.03554743       0.01870477      -0.00000000 </v>
   <v>      -0.03560070      -0.02009126      -0.00000000 </v>
   <v>      -0.03323489       0.04502080      -0.00000000 </v>
   <v>      -0.03466582      -0.04444699      -0.00000000 </v>
   <v>       0.21572019       0.00083873      -0.00000000 </v>
  </varray>
  <varray name="stress" >
   <v>      -0.09388795       0.15905818       0.00000000 </v>
   <v>       0.15905819      -0.12607146       0.00000000 </v>
   <v>       0.00000000       0.00000000      -0.56507052 </v>
  </varray>
  <energy>
   <i name="e_fr_energy">   -166.06595557 </i>
   <i name="e_wo_entrp">   -166.06400087 </i>
   <i name="e_0_energy">   -166.06497822 </i>
  </energy>
  <time name="totalsc">  143.65  143.13</time>
  <eigenvalues>
   <array>
    <dimension dim="1">band</dimension>
    <dimension dim="2">kpoint</dimension>
    <dimension dim="3">spin</dimension>
    <field>eigene</field>
    <field>occ</field>
    <set>
     <set comment="spin 1">
      <set comment="kpoint 1">
       <r>  -22.2562    1.0000 </r>
       <r>  -19.7159    1.0000 </r>
       <r>  -19.6781    1.0000 </r>
       <r>  -19.6733    1.0000 </r>
       <r>  -19.6733    1.0000 </r>
       <r>  -19.6686    1.0000 </r>
       <r>  -19.6321    1.0000 </r>
       <r>  -15.3709    1.0000 </r>
       <r>  -15.3412    1.0000 </r>
       <r>  -15.3400    1.0000 </r>
       <r>  -15.3117    1.0000 </r>
       <r>  -13.2948    1.0000 </r>
       <r>  -13.2852    1.0000 </r>
       <r>  -12.4199    1.0000 </r>
       <r>  -12.3908    1.0000 </r>
       <r>  -12.3747    1.0000 </r>
       <r>  -12.3746    1.0000 </r>
       <r>  -12.3581    1.0000 </r>
       <r>  -12.3289    1.0000 </r>
       <r>  -10.3601    1.0000 </r>
       <r>   -8.5774    1.0000 </r>
       <r>   -8.5311    1.0000 </r>
       <r>   -8.5236    1.0000 </r>
       <r>   -8.5234    1.0000 </r>
       <r>   -8.5162    1.0000 </r>
       <r>   -8.4689    1.0000 </r>
       <r>   -7.4070    1.0000 </r>
       <r>   -7.3732    1.0000 </r>
       <r>   -7.3709    1.0000 </r>
       <r>   -7.3708    1.0000 </r>
       <r>   -7.3685    1.0000 </r>
       <r>   -7.3358    1.0000 </r>
       <r>   -5.8165    1.0000 </r>
       <r>   -5.7505    1.0000 </r>
       <r>   -2.7853    0.8022 </r>
       <r>   -2.7553    0.5006 </r>
       <r>   -2.7551    0.4988 </r>
       <r>   -2.7253    0.1984 </r>
       <r>    0.5195    0.0000 </r>
       <r>    1.3114    0.0000 </r>
       <r>    1.6330    0.0000 </r>
       <r>    2.0971    0.0000 </r>
       <r>    2.1411    0.0000 </r>
       <r>    2.1443    0.0000 </r>
       <r>    2.1455    0.0000 </r>
       <r>    2.1485    0.0000 </r>
      </set>
      <set comment="kpoint 2">
       <r>  -22.2027    1.0000 </r>
       <r>  -20.3502    1.0000 </r>
       <r>  -19.9924    1.0000 </r>
       <r>  -19.9764    1.0000 </r>
       <r>  -19.2706    1.0000 </r>
       <r>  -19.2541    1.0000 </r>
       <r>  -18.9059    1.0000 </r>
       <r>  -16.0064    1.0000 </r>
       <r>  -15.9861    1.0000 </r>
       <r>  -14.9220    1.0000 </r>
       <r>  -14.9019    1.0000 </r>
       <r>  -13.6073    1.0000 </r>
       <r>  -12.9835    1.0000 </r>
       <r>  -12.9701    1.0000 </r>
       <r>  -12.9544    1.0000 </r>
       <r>  -12.9381    1.0000 </r>
       <r>  -11.7387    1.0000 </r>
       <r>  -11.7180    1.0000 </r>
       <r>  -11.1291    1.0000 </r>
       <r>  -10.2961    1.0000 </r>
       <r>   -8.8867    1.0000 </r>
       <r>   -8.8584    1.0000 </r>
       <r>   -8.8129    1.0000 </r>
       <r>   -8.5311    1.0000 </r>
       <r>   -8.5030    1.0000 </r>
       <r>   -8.1255    1.0000 </r>
       <r>   -8.1143    1.0000 </r>
       <r>   -7.7230    1.0000 </r>
       <r>   -7.7080    1.0000 </r>
       <r>   -6.9316    1.0000 </r>
       <r>   -6.9172    1.0000 </r>
       <r>   -6.5512    1.0000 </r>
       <r>   -6.0326    1.0000 </r>
       <r>   -5.8699    1.0000 </r>
       <r>   -3.5346    1.0000 </r>
       <r>   -3.5199    1.0000 </r>
       <r>   -2.0119    0.0000 </r>
       <r>   -1.9958    0.0000 </r>
       <r>    0.5921    0.0000 </r>
       <r>    0.8615    0.0000 </r>
       <r>    1.3850    0.0000 </r>
       <r>    1.4683    0.0000 </r>
       <r>    1.4882    0.0000 </r>
       <r>    1.7074    0.0000 </r>
       <r>    2.6305    0.0000 </r>
       <r>    2.7575    0.0000 </r>
      </set>
      <set comment="kpoint 3">
       <r>  -22.2026    1.0000 </r>
       <r>  -20.3500    1.0000 </r>
       <r>  -20.0000    1.0000 </r>
       <r>  -19.9687    1.0000 </r>
       <r>  -19.2785    1.0000 </r>
       <r>  -19.2468    1.0000 </r>
       <r>  -18.9057    1.0000 </r>
       <r>  -16.0108    1.0000 </r>
       <r>  -15.9806    1.0000 </r>
       <r>  -14.9274    1.0000 </r>
       <r>  -14.8989    1.0000 </r>
       <r>  -13.5988    1.0000 </r>
       <r>  -12.9844    1.0000 </r>
       <r>  -12.9695    1.0000 </r>
       <r>  -12.9556    1.0000 </r>
       <r>  -12.9427    1.0000 </r>
       <r>  -11.7496    1.0000 </r>
       <r>  -11.7215    1.0000 </r>
       <r>  -11.1164    1.0000 </r>
       <r>  -10.2961    1.0000 </r>
       <r>   -8.8851    1.0000 </r>
       <r>   -8.8551    1.0000 </r>
       <r>   -8.8192    1.0000 </r>
       <r>   -8.5229    1.0000 </r>
       <r>   -8.4946    1.0000 </r>
       <r>   -8.1292    1.0000 </r>
       <r>   -8.1276    1.0000 </r>
       <r>   -7.7272    1.0000 </r>
       <r>   -7.7000    1.0000 </r>
       <r>   -6.9362    1.0000 </r>
       <r>   -6.9094    1.0000 </r>
       <r>   -6.5568    1.0000 </r>
       <r>   -6.0129    1.0000 </r>
       <r>   -5.8899    1.0000 </r>
       <r>   -3.5408    1.0000 </r>
       <r>   -3.5127    1.0000 </r>
       <r>   -2.0206    0.0000 </r>
       <r>   -1.9883    0.0000 </r>
       <r>    0.5921    0.0000 </r>
       <r>    0.8748    0.0000 </r>
       <r>    1.3849    0.0000 </r>
       <r>    1.4540    0.0000 </r>
       <r>    1.4943    0.0000 </r>
       <r>    1.7075    0.0000 </r>
       <r>    2.6305    0.0000 </r>
       <r>    2.7415    0.0000 </r>
      </set>
      <set comment="kpoint 4">
       <r>  -22.2026    1.0000 </r>
       <r>  -20.3494    1.0000 </r>
       <r>  -19.9933    1.0000 </r>
       <r>  -19.9768    1.0000 </r>
       <r>  -19.2709    1.0000 </r>
       <r>  -19.2541    1.0000 </r>
       <r>  -18.9052    1.0000 </r>
       <r>  -16.0053    1.0000 </r>
       <r>  -15.9845    1.0000 </r>
       <r>  -14.9252    1.0000 </r>
       <r>  -14.9045    1.0000 </r>
       <r>  -13.5886    1.0000 </r>
       <r>  -12.9915    1.0000 </r>
       <r>  -12.9747    1.0000 </r>
       <r>  -12.9515    1.0000 </r>
       <r>  -12.9425    1.0000 </r>
       <r>  -11.7518    1.0000 </r>
       <r>  -11.7317    1.0000 </r>
       <r>  -11.1049    1.0000 </r>
       <r>  -10.2962    1.0000 </r>
       <r>   -8.8760    1.0000 </r>
       <r>   -8.8497    1.0000 </r>
       <r>   -8.8349    1.0000 </r>
       <r>   -8.5155    1.0000 </r>
       <r>   -8.4832    1.0000 </r>
       <r>   -8.1463    1.0000 </r>
       <r>   -8.1297    1.0000 </r>
       <r>   -7.7195    1.0000 </r>
       <r>   -7.7046    1.0000 </r>
       <r>   -6.9287    1.0000 </r>
       <r>   -6.9136    1.0000 </r>
       <r>   -6.5621    1.0000 </r>
       <r>   -5.9810    1.0000 </r>
       <r>   -5.9221    1.0000 </r>
       <r>   -3.5339    1.0000 </r>
       <r>   -3.5186    1.0000 </r>
       <r>   -2.0134    0.0000 </r>
       <r>   -1.9966    0.0000 </r>
       <r>    0.5921    0.0000 </r>
       <r>    0.8881    0.0000 </r>
       <r>    1.3850    0.0000 </r>
       <r>    1.4591    0.0000 </r>
       <r>    1.4802    0.0000 </r>
       <r>    1.7074    0.0000 </r>
       <r>    2.6305    0.0000 </r>
       <r>    2.7451    0.0000 </r>
      </set>
      <set comment="kpoint 5">
       <r>  -22.0422    1.0000 </r>
       <r>  -20.9273    1.0000 </r>
       <r>  -20.2006    1.0000 </r>
       <r>  -20.1847    1.0000 </r>
       <r>  -18.7640    1.0000 </r>
       <r>  -18.7472    1.0000 </r>
       <r>  -18.0625    1.0000 </r>
       <r>  -16.7552    1.0000 </r>
       <r>  -16.7363    1.0000 </r>
       <r>  -14.7647    1.0000 </r>
       <r>  -14.6300    1.0000 </r>
       <r>  -14.6124    1.0000 </r>
       <r>  -13.5040    1.0000 </r>
       <r>  -13.4874    1.0000 </r>
       <r>  -12.1942    1.0000 </r>
       <r>  -12.1776    1.0000 </r>
       <r>  -11.0992    1.0000 </r>
       <r>  -11.0775    1.0000 </r>
       <r>  -10.1047    1.0000 </r>
       <r>   -9.8756    1.0000 </r>
       <r>   -9.5127    1.0000 </r>
       <r>   -9.4876    1.0000 </r>
       <r>   -9.0255    1.0000 </r>
       <r>   -8.7907    1.0000 </r>
       <r>   -8.7856    1.0000 </r>
       <r>   -8.7582    1.0000 </r>
       <r>   -7.9542    1.0000 </r>
       <r>   -7.9392    1.0000 </r>
       <r>   -7.6533    1.0000 </r>
       <r>   -6.6461    1.0000 </r>
       <r>   -6.3865    1.0000 </r>
       <r>   -6.3720    1.0000 </r>
       <r>   -6.1898    1.0000 </r>
       <r>   -5.7562    1.0000 </r>
       <r>   -4.3069    1.0000 </r>
       <r>   -4.2925    1.0000 </r>
       <r>   -1.2903    0.0000 </r>
       <r>   -1.2731    0.0000 </r>
       <r>   -0.2545    0.0000 </r>
       <r>    0.7818    0.0000 </r>
       <r>    0.8014    0.0000 </r>
       <r>    0.8101    0.0000 </r>
       <r>    1.6058    0.0000 </r>
       <r>    1.9309    0.0000 </r>
       <r>    2.3340    0.0000 </r>
       <r>    2.8519    0.0000 </r>
      </set>
      <set comment="kpoint 6">
       <r>  -22.0421    1.0000 </r>
       <r>  -20.9272    1.0000 </r>
       <r>  -20.2085    1.0000 </r>
       <r>  -20.1772    1.0000 </r>
       <r>  -18.7715    1.0000 </r>
       <r>  -18.7396    1.0000 </r>
       <r>  -18.0630    1.0000 </r>
       <r>  -16.7611    1.0000 </r>
       <r>  -16.7297    1.0000 </r>
       <r>  -14.7549    1.0000 </r>
       <r>  -14.6369    1.0000 </r>
       <r>  -14.6104    1.0000 </r>
       <r>  -13.5117    1.0000 </r>
       <r>  -13.4863    1.0000 </r>
       <r>  -12.2003    1.0000 </r>
       <r>  -12.1684    1.0000 </r>
       <r>  -11.1125    1.0000 </r>
       <r>  -11.0841    1.0000 </r>
       <r>  -10.1049    1.0000 </r>
       <r>   -9.8603    1.0000 </r>
       <r>   -9.5120    1.0000 </r>
       <r>   -9.4797    1.0000 </r>
       <r>   -9.0376    1.0000 </r>
       <r>   -8.7921    1.0000 </r>
       <r>   -8.7731    1.0000 </r>
       <r>   -8.7477    1.0000 </r>
       <r>   -7.9585    1.0000 </r>
       <r>   -7.9312    1.0000 </r>
       <r>   -7.6702    1.0000 </r>
       <r>   -6.6234    1.0000 </r>
       <r>   -6.3910    1.0000 </r>
       <r>   -6.3643    1.0000 </r>
       <r>   -6.2135    1.0000 </r>
       <r>   -5.7650    1.0000 </r>
       <r>   -4.3125    1.0000 </r>
       <r>   -4.2854    1.0000 </r>
       <r>   -1.3001    0.0000 </r>
       <r>   -1.2654    0.0000 </r>
       <r>   -0.2378    0.0000 </r>
       <r>    0.7684    0.0000 </r>
       <r>    0.8080    0.0000 </r>
       <r>    0.8101    0.0000 </r>
       <r>    1.6058    0.0000 </r>
       <r>    1.9309    0.0000 </r>
       <r>    2.3339    0.0000 </r>
       <r>    2.8519    0.0000 </r>
      </set>
      <set comment="kpoint 7">
       <r>  -22.0421    1.0000 </r>
       <r>  -20.9267    1.0000 </r>
       <r>  -20.2016    1.0000 </r>
       <r>  -20.1852    1.0000 </r>
       <r>  -18.7641    1.0000 </r>
       <r>  -18.7469    1.0000 </r>
       <r>  -18.0633    1.0000 </r>
       <r>  -16.7542    1.0000 </r>
       <r>  -16.7348    1.0000 </r>
       <r>  -14.7464    1.0000 </r>
       <r>  -14.6351    1.0000 </r>
       <r>  -14.6167    1.0000 </r>
       <r>  -13.5120    1.0000 </r>
       <r>  -13.4946    1.0000 </r>
       <r>  -12.1896    1.0000 </r>
       <r>  -12.1738    1.0000 </r>
       <r>  -11.1188    1.0000 </r>
       <r>  -11.0968    1.0000 </r>
       <r>  -10.1051    1.0000 </r>
       <r>   -9.8467    1.0000 </r>
       <r>   -9.5023    1.0000 </r>
       <r>   -9.4775    1.0000 </r>
       <r>   -9.0518    1.0000 </r>
       <r>   -8.7933    1.0000 </r>
       <r>   -8.7631    1.0000 </r>
       <r>   -8.7337    1.0000 </r>
       <r>   -7.9506    1.0000 </r>
       <r>   -7.9356    1.0000 </r>
       <r>   -7.6888    1.0000 </r>
       <r>   -6.5974    1.0000 </r>
       <r>   -6.3836    1.0000 </r>
       <r>   -6.3687    1.0000 </r>
       <r>   -6.2405    1.0000 </r>
       <r>   -5.7736    1.0000 </r>
       <r>   -4.3055    1.0000 </r>
       <r>   -4.2905    1.0000 </r>
       <r>   -1.2931    0.0000 </r>
       <r>   -1.2753    0.0000 </r>
       <r>   -0.2205    0.0000 </r>
       <r>    0.7745    0.0000 </r>
       <r>    0.7948    0.0000 </r>
       <r>    0.8100    0.0000 </r>
       <r>    1.6058    0.0000 </r>
       <r>    1.9309    0.0000 </r>
       <r>    2.3339    0.0000 </r>
       <r>    2.8519    0.0000 </r>
      </set>
      <set comment="kpoint 8">
       <r>  -21.7757    1.0000 </r>
       <r>  -21.4029    1.0000 </r>
       <r>  -20.3051    1.0000 </r>
       <r>  -20.2892    1.0000 </r>
       <r>  -18.1679    1.0000 </r>
       <r>  -18.1504    1.0000 </r>
       <r>  -17.4907    1.0000 </r>
       <r>  -17.4731    1.0000 </r>
       <r>  -17.2237    1.0000 </r>
       <r>  -15.7584    1.0000 </r>
       <r>  -14.3279    1.0000 </r>
       <r>  -14.3119    1.0000 </r>
       <r>  -13.9555    1.0000 </r>
       <r>  -13.9388    1.0000 </r>
       <r>  -11.2719    1.0000 </r>
       <r>  -11.2524    1.0000 </r>
       <r>  -10.5926    1.0000 </r>
       <r>  -10.5720    1.0000 </r>
       <r>  -10.3431    1.0000 </r>
       <r>  -10.3195    1.0000 </r>
       <r>   -9.7877    1.0000 </r>
       <r>   -9.3476    1.0000 </r>
       <r>   -9.1375    1.0000 </r>
       <r>   -9.1165    1.0000 </r>
       <r>   -9.0934    1.0000 </r>
       <r>   -8.6619    1.0000 </r>
       <r>   -8.0706    1.0000 </r>
       <r>   -8.0557    1.0000 </r>
       <r>   -7.5582    1.0000 </r>
       <r>   -7.1494    1.0000 </r>
       <r>   -6.6393    1.0000 </r>
       <r>   -5.7563    1.0000 </r>
       <r>   -5.7417    1.0000 </r>
       <r>   -5.1868    1.0000 </r>
       <r>   -5.0545    1.0000 </r>
       <r>   -5.0399    1.0000 </r>
       <r>   -0.9923    0.0000 </r>
       <r>   -0.5913    0.0000 </r>
       <r>   -0.5739    0.0000 </r>
       <r>    0.0956    0.0000 </r>
       <r>    0.1150    0.0000 </r>
       <r>    1.1734    0.0000 </r>
       <r>    1.6816    0.0000 </r>
       <r>    1.9732    0.0000 </r>
       <r>    2.3033    0.0000 </r>
       <r>    2.4863    0.0000 </r>
      </set>
      <set comment="kpoint 9">
       <r>  -21.7753    1.0000 </r>
       <r>  -21.4032    1.0000 </r>
       <r>  -20.3130    1.0000 </r>
       <r>  -20.2818    1.0000 </r>
       <r>  -18.1745    1.0000 </r>
       <r>  -18.1425    1.0000 </r>
       <r>  -17.4977    1.0000 </r>
       <r>  -17.4658    1.0000 </r>
       <r>  -17.2286    1.0000 </r>
       <r>  -15.7458    1.0000 </r>
       <r>  -14.3349    1.0000 </r>
       <r>  -14.3096    1.0000 </r>
       <r>  -13.9629    1.0000 </r>
       <r>  -13.9379    1.0000 </r>
       <r>  -11.2765    1.0000 </r>
       <r>  -11.2427    1.0000 </r>
       <r>  -10.6112    1.0000 </r>
       <r>  -10.5857    1.0000 </r>
       <r>  -10.3438    1.0000 </r>
       <r>  -10.3104    1.0000 </r>
       <r>   -9.7879    1.0000 </r>
       <r>   -9.3486    1.0000 </r>
       <r>   -9.1494    1.0000 </r>
       <r>   -9.0947    1.0000 </r>
       <r>   -9.0798    1.0000 </r>
       <r>   -8.6454    1.0000 </r>
       <r>   -8.0750    1.0000 </r>
       <r>   -8.0476    1.0000 </r>
       <r>   -7.5398    1.0000 </r>
       <r>   -7.1658    1.0000 </r>
       <r>   -6.6623    1.0000 </r>
       <r>   -5.7606    1.0000 </r>
       <r>   -5.7341    1.0000 </r>
       <r>   -5.1990    1.0000 </r>
       <r>   -5.0598    1.0000 </r>
       <r>   -5.0333    1.0000 </r>
       <r>   -0.9701    0.0000 </r>
       <r>   -0.6034    0.0000 </r>
       <r>   -0.5665    0.0000 </r>
       <r>    0.0834    0.0000 </r>
       <r>    0.1219    0.0000 </r>
       <r>    1.1733    0.0000 </r>
       <r>    1.6815    0.0000 </r>
       <r>    1.9732    0.0000 </r>
       <r>    2.3033    0.0000 </r>
       <r>    2.4861    0.0000 </r>
      </set>
      <set comment="kpoint 10">
       <r>  -21.7755    1.0000 </r>
       <r>  -21.4025    1.0000 </r>
       <r>  -20.3061    1.0000 </r>
       <r>  -20.2898    1.0000 </r>
       <r>  -18.1675    1.0000 </r>
       <r>  -18.1498    1.0000 </r>
       <r>  -17.4903    1.0000 </r>
       <r>  -17.4717    1.0000 </r>
       <r>  -17.2318    1.0000 </r>
       <r>  -15.7331    1.0000 </r>
       <r>  -14.3347    1.0000 </r>
       <r>  -14.3170    1.0000 </r>
       <r>  -13.9622    1.0000 </r>
       <r>  -13.9457    1.0000 </r>
       <r>  -11.2652    1.0000 </r>
       <r>  -11.2466    1.0000 </r>
       <r>  -10.6251    1.0000 </r>
       <r>  -10.6014    1.0000 </r>
       <r>  -10.3334    1.0000 </r>
       <r>  -10.3130    1.0000 </r>
       <r>   -9.7885    1.0000 </r>
       <r>   -9.3491    1.0000 </r>
       <r>   -9.1587    1.0000 </r>
       <r>   -9.0841    1.0000 </r>
       <r>   -9.0607    1.0000 </r>
       <r>   -8.6271    1.0000 </r>
       <r>   -8.0671    1.0000 </r>
       <r>   -8.0520    1.0000 </r>
       <r>   -7.5167    1.0000 </r>
       <r>   -7.1890    1.0000 </r>
       <r>   -6.6847    1.0000 </r>
       <r>   -5.7537    1.0000 </r>
       <r>   -5.7388    1.0000 </r>
       <r>   -5.2118    1.0000 </r>
       <r>   -5.0524    1.0000 </r>
       <r>   -5.0377    1.0000 </r>
       <r>   -0.9501    0.0000 </r>
       <r>   -0.5962    0.0000 </r>
       <r>   -0.5768    0.0000 </r>
       <r>    0.0903    0.0000 </r>
       <r>    0.1096    0.0000 </r>
       <r>    1.1733    0.0000 </r>
       <r>    1.6815    0.0000 </r>
       <r>    1.9731    0.0000 </r>
       <r>    2.3033    0.0000 </r>
       <r>    2.4860    0.0000 </r>
      </set>
      <set comment="kpoint 11">
       <r>  -22.0957    1.0000 </r>
       <r>  -20.6228    1.0000 </r>
       <r>  -20.6001    1.0000 </r>
       <r>  -19.5345    1.0000 </r>
       <r>  -19.5038    1.0000 </r>
       <r>  -18.4670    1.0000 </r>
       <r>  -18.4432    1.0000 </r>
       <r>  -16.7783    1.0000 </r>
       <r>  -16.1698    1.0000 </r>
       <r>  -15.2234    1.0000 </r>
       <r>  -14.2679    1.0000 </r>
       <r>  -14.1795    1.0000 </r>
       <r>  -14.1457    1.0000 </r>
       <r>  -12.5947    1.0000 </r>
       <r>  -12.3112    1.0000 </r>
       <r>  -12.2893    1.0000 </r>
       <r>  -12.2730    1.0000 </r>
       <r>  -10.5137    1.0000 </r>
       <r>  -10.4687    1.0000 </r>
       <r>  -10.1684    1.0000 </r>
       <r>   -9.2145    1.0000 </r>
       <r>   -9.1709    1.0000 </r>
       <r>   -9.1278    1.0000 </r>
       <r>   -9.1011    1.0000 </r>
       <r>   -8.4348    1.0000 </r>
       <r>   -8.4169    1.0000 </r>
       <r>   -8.0893    1.0000 </r>
       <r>   -8.0466    1.0000 </r>
       <r>   -7.2082    1.0000 </r>
       <r>   -7.1801    1.0000 </r>
       <r>   -6.4346    1.0000 </r>
       <r>   -6.1096    1.0000 </r>
       <r>   -6.1026    1.0000 </r>
       <r>   -6.0914    1.0000 </r>
       <r>   -4.2501    1.0000 </r>
       <r>   -3.9124    1.0000 </r>
       <r>   -1.6926    0.0000 </r>
       <r>   -1.2773    0.0000 </r>
       <r>    0.2516    0.0000 </r>
       <r>    0.2777    0.0000 </r>
       <r>    0.7374    0.0000 </r>
       <r>    1.5322    0.0000 </r>
       <r>    1.8564    0.0000 </r>
       <r>    2.0034    0.0000 </r>
       <r>    2.0406    0.0000 </r>
       <r>    2.7781    0.0000 </r>
      </set>
      <set comment="kpoint 12">
       <r>  -22.0956    1.0000 </r>
       <r>  -20.6227    1.0000 </r>
       <r>  -20.5999    1.0000 </r>
       <r>  -19.5355    1.0000 </r>
       <r>  -19.5044    1.0000 </r>
       <r>  -18.4667    1.0000 </r>
       <r>  -18.4430    1.0000 </r>
       <r>  -16.7802    1.0000 </r>
       <r>  -16.1531    1.0000 </r>
       <r>  -15.2579    1.0000 </r>
       <r>  -14.2451    1.0000 </r>
       <r>  -14.1715    1.0000 </r>
       <r>  -14.1346    1.0000 </r>
       <r>  -12.6167    1.0000 </r>
       <r>  -12.3293    1.0000 </r>
       <r>  -12.3081    1.0000 </r>
       <r>  -12.2586    1.0000 </r>
       <r>  -10.5042    1.0000 </r>
       <r>  -10.4597    1.0000 </r>
       <r>  -10.1687    1.0000 </r>
       <r>   -9.1826    1.0000 </r>
       <r>   -9.1589    1.0000 </r>
       <r>   -9.1379    1.0000 </r>
       <r>   -9.1071    1.0000 </r>
       <r>   -8.4357    1.0000 </r>
       <r>   -8.4178    1.0000 </r>
       <r>   -8.1011    1.0000 </r>
       <r>   -8.0588    1.0000 </r>
       <r>   -7.2020    1.0000 </r>
       <r>   -7.1736    1.0000 </r>
       <r>   -6.3817    1.0000 </r>
       <r>   -6.1569    1.0000 </r>
       <r>   -6.1175    1.0000 </r>
       <r>   -6.0993    1.0000 </r>
       <r>   -4.2659    1.0000 </r>
       <r>   -3.8860    1.0000 </r>
       <r>   -1.7284    0.0000 </r>
       <r>   -1.2529    0.0000 </r>
       <r>    0.2685    0.0000 </r>
       <r>    0.2954    0.0000 </r>
       <r>    0.7374    0.0000 </r>
       <r>    1.5322    0.0000 </r>
       <r>    1.8564    0.0000 </r>
       <r>    1.9835    0.0000 </r>
       <r>    2.0208    0.0000 </r>
       <r>    2.7781    0.0000 </r>
      </set>
      <set comment="kpoint 13">
       <r>  -22.0956    1.0000 </r>
       <r>  -20.6120    1.0000 </r>
       <r>  -20.6108    1.0000 </r>
       <r>  -19.5202    1.0000 </r>
       <r>  -19.5192    1.0000 </r>
       <r>  -18.4550    1.0000 </r>
       <r>  -18.4547    1.0000 </r>
       <r>  -16.7785    1.0000 </r>
       <r>  -16.1622    1.0000 </r>
       <r>  -15.2404    1.0000 </r>
       <r>  -14.2609    1.0000 </r>
       <r>  -14.1651    1.0000 </r>
       <r>  -14.1468    1.0000 </r>
       <r>  -12.6052    1.0000 </r>
       <r>  -12.3167    1.0000 </r>
       <r>  -12.3064    1.0000 </r>
       <r>  -12.2619    1.0000 </r>
       <r>  -10.5010    1.0000 </r>
       <r>  -10.4719    1.0000 </r>
       <r>  -10.1686    1.0000 </r>
       <r>   -9.1864    1.0000 </r>
       <r>   -9.1755    1.0000 </r>
       <r>   -9.1320    1.0000 </r>
       <r>   -9.1064    1.0000 </r>
       <r>   -8.4282    1.0000 </r>
       <r>   -8.4244    1.0000 </r>
       <r>   -8.0922    1.0000 </r>
       <r>   -8.0560    1.0000 </r>
       <r>   -7.1924    1.0000 </r>
       <r>   -7.1897    1.0000 </r>
       <r>   -6.4102    1.0000 </r>
       <r>   -6.1277    1.0000 </r>
       <r>   -6.1109    1.0000 </r>
       <r>   -6.0979    1.0000 </r>
       <r>   -4.2576    1.0000 </r>
       <r>   -3.8995    1.0000 </r>
       <r>   -1.7102    0.0000 </r>
       <r>   -1.2655    0.0000 </r>
       <r>    0.2593    0.0000 </r>
       <r>    0.2874    0.0000 </r>
       <r>    0.7374    0.0000 </r>
       <r>    1.5322    0.0000 </r>
       <r>    1.8564    0.0000 </r>
       <r>    2.0075    0.0000 </r>
       <r>    2.0167    0.0000 </r>
       <r>    2.7781    0.0000 </r>
      </set>
      <set comment="kpoint 14">
       <r>  -21.8821    1.0000 </r>
       <r>  -21.1385    1.0000 </r>
       <r>  -20.7686    1.0000 </r>
       <r>  -19.6745    1.0000 </r>
       <r>  -18.9578    1.0000 </r>
       <r>  -17.9178    1.0000 </r>
       <r>  -17.5965    1.0000 </r>
       <r>  -17.5685    1.0000 </r>
       <r>  -16.6752    1.0000 </r>
       <r>  -15.2699    1.0000 </r>
       <r>  -15.2318    1.0000 </r>
       <r>  -14.6351    1.0000 </r>
       <r>  -13.7358    1.0000 </r>
       <r>  -12.8132    1.0000 </r>
       <r>  -11.8897    1.0000 </r>
       <r>  -11.6672    1.0000 </r>
       <r>  -11.3994    1.0000 </r>
       <r>  -10.0518    1.0000 </r>
       <r>   -9.9141    1.0000 </r>
       <r>   -9.9100    1.0000 </r>
       <r>   -9.7106    1.0000 </r>
       <r>   -9.6455    1.0000 </r>
       <r>   -9.2827    1.0000 </r>
       <r>   -9.2629    1.0000 </r>
       <r>   -9.0371    1.0000 </r>
       <r>   -8.6077    1.0000 </r>
       <r>   -8.2681    1.0000 </r>
       <r>   -7.5628    1.0000 </r>
       <r>   -7.3577    1.0000 </r>
       <r>   -7.1687    1.0000 </r>
       <r>   -6.5701    1.0000 </r>
       <r>   -6.5166    1.0000 </r>
       <r>   -5.5809    1.0000 </r>
       <r>   -5.3746    1.0000 </r>
       <r>   -5.0686    1.0000 </r>
       <r>   -4.4438    1.0000 </r>
       <r>   -1.2798    0.0000 </r>
       <r>   -0.7058    0.0000 </r>
       <r>   -0.4337    0.0000 </r>
       <r>   -0.3002    0.0000 </r>
       <r>    1.0281    0.0000 </r>
       <r>    1.2313    0.0000 </r>
       <r>    1.8264    0.0000 </r>
       <r>    2.0445    0.0000 </r>
       <r>    2.1543    0.0000 </r>
       <r>    2.4148    0.0000 </r>
      </set>
      <set comment="kpoint 15">
       <r>  -21.8819    1.0000 </r>
       <r>  -21.1386    1.0000 </r>
       <r>  -20.7686    1.0000 </r>
       <r>  -19.6748    1.0000 </r>
       <r>  -18.9587    1.0000 </r>
       <r>  -17.9177    1.0000 </r>
       <r>  -17.5961    1.0000 </r>
       <r>  -17.5707    1.0000 </r>
       <r>  -16.6664    1.0000 </r>
       <r>  -15.2699    1.0000 </r>
       <r>  -15.2482    1.0000 </r>
       <r>  -14.6246    1.0000 </r>
       <r>  -13.7138    1.0000 </r>
       <r>  -12.8332    1.0000 </r>
       <r>  -11.9146    1.0000 </r>
       <r>  -11.6903    1.0000 </r>
       <r>  -11.3773    1.0000 </r>
       <r>  -10.0275    1.0000 </r>
       <r>   -9.9146    1.0000 </r>
       <r>   -9.9075    1.0000 </r>
       <r>   -9.7241    1.0000 </r>
       <r>   -9.6189    1.0000 </r>
       <r>   -9.2923    1.0000 </r>
       <r>   -9.2572    1.0000 </r>
       <r>   -9.0375    1.0000 </r>
       <r>   -8.6075    1.0000 </r>
       <r>   -8.2707    1.0000 </r>
       <r>   -7.5728    1.0000 </r>
       <r>   -7.3532    1.0000 </r>
       <r>   -7.1261    1.0000 </r>
       <r>   -6.5628    1.0000 </r>
       <r>   -6.5611    1.0000 </r>
       <r>   -5.5912    1.0000 </r>
       <r>   -5.3862    1.0000 </r>
       <r>   -5.0809    1.0000 </r>
       <r>   -4.4196    1.0000 </r>
       <r>   -1.3166    0.0000 </r>
       <r>   -0.6842    0.0000 </r>
       <r>   -0.4136    0.0000 </r>
       <r>   -0.2776    0.0000 </r>
       <r>    1.0281    0.0000 </r>
       <r>    1.2112    0.0000 </r>
       <r>    1.8263    0.0000 </r>
       <r>    2.0446    0.0000 </r>
       <r>    2.1543    0.0000 </r>
       <r>    2.3992    0.0000 </r>
      </set>
      <set comment="kpoint 16">
       <r>  -21.8820    1.0000 </r>
       <r>  -21.1378    1.0000 </r>
       <r>  -20.7695    1.0000 </r>
       <r>  -19.6751    1.0000 </r>
       <r>  -18.9582    1.0000 </r>
       <r>  -17.9167    1.0000 </r>
       <r>  -17.6014    1.0000 </r>
       <r>  -17.5658    1.0000 </r>
       <r>  -16.6714    1.0000 </r>
       <r>  -15.2523    1.0000 </r>
       <r>  -15.2405    1.0000 </r>
       <r>  -14.6443    1.0000 </r>
       <r>  -13.7322    1.0000 </r>
       <r>  -12.8175    1.0000 </r>
       <r>  -11.8941    1.0000 </r>
       <r>  -11.6906    1.0000 </r>
       <r>  -11.3887    1.0000 </r>
       <r>  -10.0461    1.0000 </r>
       <r>   -9.9338    1.0000 </r>
       <r>   -9.9146    1.0000 </r>
       <r>   -9.7007    1.0000 </r>
       <r>   -9.6211    1.0000 </r>
       <r>   -9.2958    1.0000 </r>
       <r>   -9.2438    1.0000 </r>
       <r>   -9.0388    1.0000 </r>
       <r>   -8.6054    1.0000 </r>
       <r>   -8.2373    1.0000 </r>
       <r>   -7.6003    1.0000 </r>
       <r>   -7.3525    1.0000 </r>
       <r>   -7.1302    1.0000 </r>
       <r>   -6.5701    1.0000 </r>
       <r>   -6.5569    1.0000 </r>
       <r>   -5.5742    1.0000 </r>
       <r>   -5.3966    1.0000 </r>
       <r>   -5.0712    1.0000 </r>
       <r>   -4.4346    1.0000 </r>
       <r>   -1.2938    0.0000 </r>
       <r>   -0.6677    0.0000 </r>
       <r>   -0.4307    0.0000 </r>
       <r>   -0.3095    0.0000 </r>
       <r>    1.0281    0.0000 </r>
       <r>    1.2312    0.0000 </r>
       <r>    1.8263    0.0000 </r>
       <r>    2.0444    0.0000 </r>
       <r>    2.1543    0.0000 </r>
       <r>    2.3958    0.0000 </r>
      </set>
      <set comment="kpoint 17">
       <r>  -21.8819    1.0000 </r>
       <r>  -21.1382    1.0000 </r>
       <r>  -20.7690    1.0000 </r>
       <r>  -19.6755    1.0000 </r>
       <r>  -18.9581    1.0000 </r>
       <r>  -17.9174    1.0000 </r>
       <r>  -17.5989    1.0000 </r>
       <r>  -17.5690    1.0000 </r>
       <r>  -16.6661    1.0000 </r>
       <r>  -15.2703    1.0000 </r>
       <r>  -15.2369    1.0000 </r>
       <r>  -14.6339    1.0000 </r>
       <r>  -13.7191    1.0000 </r>
       <r>  -12.8299    1.0000 </r>
       <r>  -11.9080    1.0000 </r>
       <r>  -11.6973    1.0000 </r>
       <r>  -11.3788    1.0000 </r>
       <r>  -10.0307    1.0000 </r>
       <r>   -9.9271    1.0000 </r>
       <r>   -9.9148    1.0000 </r>
       <r>   -9.7123    1.0000 </r>
       <r>   -9.6108    1.0000 </r>
       <r>   -9.2968    1.0000 </r>
       <r>   -9.2476    1.0000 </r>
       <r>   -9.0386    1.0000 </r>
       <r>   -8.6059    1.0000 </r>
       <r>   -8.2488    1.0000 </r>
       <r>   -7.5942    1.0000 </r>
       <r>   -7.3515    1.0000 </r>
       <r>   -7.1142    1.0000 </r>
       <r>   -6.5742    1.0000 </r>
       <r>   -6.5649    1.0000 </r>
       <r>   -5.5837    1.0000 </r>
       <r>   -5.3965    1.0000 </r>
       <r>   -5.0788    1.0000 </r>
       <r>   -4.4213    1.0000 </r>
       <r>   -1.3139    0.0000 </r>
       <r>   -0.6668    0.0000 </r>
       <r>   -0.4140    0.0000 </r>
       <r>   -0.2944    0.0000 </r>
       <r>    1.0280    0.0000 </r>
       <r>    1.2175    0.0000 </r>
       <r>    1.8263    0.0000 </r>
       <r>    2.0445    0.0000 </r>
       <r>    2.1543    0.0000 </r>
       <r>    2.3921    0.0000 </r>
      </set>
      <set comment="kpoint 18">
       <r>  -21.8820    1.0000 </r>
       <r>  -21.1384    1.0000 </r>
       <r>  -20.7689    1.0000 </r>
       <r>  -19.6745    1.0000 </r>
       <r>  -18.9577    1.0000 </r>
       <r>  -17.9169    1.0000 </r>
       <r>  -17.5963    1.0000 </r>
       <r>  -17.5703    1.0000 </r>
       <r>  -16.6758    1.0000 </r>
       <r>  -15.2582    1.0000 </r>
       <r>  -15.2320    1.0000 </r>
       <r>  -14.6443    1.0000 </r>
       <r>  -13.7402    1.0000 </r>
       <r>  -12.8088    1.0000 </r>
       <r>  -11.8858    1.0000 </r>
       <r>  -11.6748    1.0000 </r>
       <r>  -11.3997    1.0000 </r>
       <r>  -10.0582    1.0000 </r>
       <r>   -9.9264    1.0000 </r>
       <r>   -9.9142    1.0000 </r>
       <r>   -9.6988    1.0000 </r>
       <r>   -9.6376    1.0000 </r>
       <r>   -9.2895    1.0000 </r>
       <r>   -9.2502    1.0000 </r>
       <r>   -9.0383    1.0000 </r>
       <r>   -8.6062    1.0000 </r>
       <r>   -8.2476    1.0000 </r>
       <r>   -7.5834    1.0000 </r>
       <r>   -7.3557    1.0000 </r>
       <r>   -7.1574    1.0000 </r>
       <r>   -6.5724    1.0000 </r>
       <r>   -6.5282    1.0000 </r>
       <r>   -5.5729    1.0000 </r>
       <r>   -5.3851    1.0000 </r>
       <r>   -5.0668    1.0000 </r>
       <r>   -4.4457    1.0000 </r>
       <r>   -1.2768    0.0000 </r>
       <r>   -0.6863    0.0000 </r>
       <r>   -0.4406    0.0000 </r>
       <r>   -0.3129    0.0000 </r>
       <r>    1.0281    0.0000 </r>
       <r>    1.2379    0.0000 </r>
       <r>    1.8263    0.0000 </r>
       <r>    2.0445    0.0000 </r>
       <r>    2.1543    0.0000 </r>
       <r>    2.5526    0.0000 </r>
      </set>
      <set comment="kpoint 19">
       <r>  -21.8821    1.0000 </r>
       <r>  -21.1384    1.0000 </r>
       <r>  -20.7687    1.0000 </r>
       <r>  -19.6744    1.0000 </r>
       <r>  -18.9590    1.0000 </r>
       <r>  -17.9178    1.0000 </r>
       <r>  -17.5990    1.0000 </r>
       <r>  -17.5655    1.0000 </r>
       <r>  -16.6711    1.0000 </r>
       <r>  -15.2659    1.0000 </r>
       <r>  -15.2493    1.0000 </r>
       <r>  -14.6258    1.0000 </r>
       <r>  -13.7225    1.0000 </r>
       <r>  -12.8251    1.0000 </r>
       <r>  -11.9044    1.0000 </r>
       <r>  -11.6762    1.0000 </r>
       <r>  -11.3867    1.0000 </r>
       <r>  -10.0364    1.0000 </r>
       <r>   -9.9144    1.0000 </r>
       <r>   -9.8974    1.0000 </r>
       <r>   -9.7248    1.0000 </r>
       <r>   -9.6374    1.0000 </r>
       <r>   -9.2842    1.0000 </r>
       <r>   -9.2663    1.0000 </r>
       <r>   -9.0365    1.0000 </r>
       <r>   -8.6086    1.0000 </r>
       <r>   -8.2797    1.0000 </r>
       <r>   -7.5583    1.0000 </r>
       <r>   -7.3563    1.0000 </r>
       <r>   -7.1532    1.0000 </r>
       <r>   -6.5657    1.0000 </r>
       <r>   -6.5324    1.0000 </r>
       <r>   -5.5898    1.0000 </r>
       <r>   -5.3756    1.0000 </r>
       <r>   -5.0749    1.0000 </r>
       <r>   -4.4310    1.0000 </r>
       <r>   -1.2995    0.0000 </r>
       <r>   -0.7046    0.0000 </r>
       <r>   -0.4231    0.0000 </r>
       <r>   -0.2802    0.0000 </r>
       <r>    1.0281    0.0000 </r>
       <r>    1.2183    0.0000 </r>
       <r>    1.8263    0.0000 </r>
       <r>    2.0446    0.0000 </r>
       <r>    2.1543    0.0000 </r>
       <r>    2.4105    0.0000 </r>
      </set>
      <set comment="kpoint 20">
       <r>  -21.5737    1.0000 </r>
       <r>  -21.5514    1.0000 </r>
       <r>  -20.8213    1.0000 </r>
       <r>  -19.7261    1.0000 </r>
       <r>  -18.3229    1.0000 </r>
       <r>  -18.2902    1.0000 </r>
       <r>  -17.3258    1.0000 </r>
       <r>  -17.2919    1.0000 </r>
       <r>  -16.9792    1.0000 </r>
       <r>  -15.9548    1.0000 </r>
       <r>  -15.0179    1.0000 </r>
       <r>  -14.9920    1.0000 </r>
       <r>  -13.2952    1.0000 </r>
       <r>  -13.2676    1.0000 </r>
       <r>  -11.3427    1.0000 </r>
       <r>  -11.0015    1.0000 </r>
       <r>  -10.9763    1.0000 </r>
       <r>  -10.5166    1.0000 </r>
       <r>  -10.4932    1.0000 </r>
       <r>   -9.9232    1.0000 </r>
       <r>   -9.6162    1.0000 </r>
       <r>   -9.5447    1.0000 </r>
       <r>   -9.5265    1.0000 </r>
       <r>   -9.3228    1.0000 </r>
       <r>   -8.6686    1.0000 </r>
       <r>   -8.4413    1.0000 </r>
       <r>   -8.1616    1.0000 </r>
       <r>   -8.1211    1.0000 </r>
       <r>   -7.4118    1.0000 </r>
       <r>   -7.0612    1.0000 </r>
       <r>   -7.0031    1.0000 </r>
       <r>   -5.8695    1.0000 </r>
       <r>   -5.8417    1.0000 </r>
       <r>   -5.0521    1.0000 </r>
       <r>   -5.0292    1.0000 </r>
       <r>   -4.9999    1.0000 </r>
       <r>   -1.1119    0.0000 </r>
       <r>   -0.8299    0.0000 </r>
       <r>   -0.8031    0.0000 </r>
       <r>    0.3958    0.0000 </r>
       <r>    0.4237    0.0000 </r>
       <r>    1.4627    0.0000 </r>
       <r>    1.4653    0.0000 </r>
       <r>    2.2663    0.0000 </r>
       <r>    2.2672    0.0000 </r>
       <r>    2.6011    0.0000 </r>
      </set>
      <set comment="kpoint 21">
       <r>  -21.5630    1.0000 </r>
       <r>  -21.5620    1.0000 </r>
       <r>  -20.8216    1.0000 </r>
       <r>  -19.7263    1.0000 </r>
       <r>  -18.3071    1.0000 </r>
       <r>  -18.3059    1.0000 </r>
       <r>  -17.3096    1.0000 </r>
       <r>  -17.3061    1.0000 </r>
       <r>  -16.9869    1.0000 </r>
       <r>  -15.9391    1.0000 </r>
       <r>  -15.0204    1.0000 </r>
       <r>  -14.9982    1.0000 </r>
       <r>  -13.2946    1.0000 </r>
       <r>  -13.2690    1.0000 </r>
       <r>  -11.3598    1.0000 </r>
       <r>  -11.0032    1.0000 </r>
       <r>  -10.9734    1.0000 </r>
       <r>  -10.5121    1.0000 </r>
       <r>  -10.4880    1.0000 </r>
       <r>   -9.9064    1.0000 </r>
       <r>   -9.6338    1.0000 </r>
       <r>   -9.5366    1.0000 </r>
       <r>   -9.5357    1.0000 </r>
       <r>   -9.3355    1.0000 </r>
       <r>   -8.6674    1.0000 </r>
       <r>   -8.4186    1.0000 </r>
       <r>   -8.1334    1.0000 </r>
       <r>   -8.1162    1.0000 </r>
       <r>   -7.4092    1.0000 </r>
       <r>   -7.0607    1.0000 </r>
       <r>   -7.0416    1.0000 </r>
       <r>   -5.8620    1.0000 </r>
       <r>   -5.8502    1.0000 </r>
       <r>   -5.0659    1.0000 </r>
       <r>   -5.0218    1.0000 </r>
       <r>   -4.9997    1.0000 </r>
       <r>   -1.0895    0.0000 </r>
       <r>   -0.8424    0.0000 </r>
       <r>   -0.8037    0.0000 </r>
       <r>    0.3973    0.0000 </r>
       <r>    0.4250    0.0000 </r>
       <r>    1.4639    0.0000 </r>
       <r>    1.4640    0.0000 </r>
       <r>    2.2666    0.0000 </r>
       <r>    2.2667    0.0000 </r>
       <r>    2.4902    0.0000 </r>
      </set>
      <set comment="kpoint 22">
       <r>  -21.5734    1.0000 </r>
       <r>  -21.5511    1.0000 </r>
       <r>  -20.8220    1.0000 </r>
       <r>  -19.7271    1.0000 </r>
       <r>  -18.3223    1.0000 </r>
       <r>  -18.2900    1.0000 </r>
       <r>  -17.3239    1.0000 </r>
       <r>  -17.2898    1.0000 </r>
       <r>  -16.9936    1.0000 </r>
       <r>  -15.9234    1.0000 </r>
       <r>  -15.0274    1.0000 </r>
       <r>  -15.0014    1.0000 </r>
       <r>  -13.2968    1.0000 </r>
       <r>  -13.2691    1.0000 </r>
       <r>  -11.3744    1.0000 </r>
       <r>  -10.9993    1.0000 </r>
       <r>  -10.9752    1.0000 </r>
       <r>  -10.5060    1.0000 </r>
       <r>  -10.4840    1.0000 </r>
       <r>   -9.8878    1.0000 </r>
       <r>   -9.6542    1.0000 </r>
       <r>   -9.5457    1.0000 </r>
       <r>   -9.5275    1.0000 </r>
       <r>   -9.3480    1.0000 </r>
       <r>   -8.6661    1.0000 </r>
       <r>   -8.3996    1.0000 </r>
       <r>   -8.1286    1.0000 </r>
       <r>   -8.0809    1.0000 </r>
       <r>   -7.4068    1.0000 </r>
       <r>   -7.0997    1.0000 </r>
       <r>   -7.0456    1.0000 </r>
       <r>   -5.8705    1.0000 </r>
       <r>   -5.8426    1.0000 </r>
       <r>   -5.0784    1.0000 </r>
       <r>   -5.0199    1.0000 </r>
       <r>   -4.9949    1.0000 </r>
       <r>   -1.0683    0.0000 </r>
       <r>   -0.8432    0.0000 </r>
       <r>   -0.8149    0.0000 </r>
       <r>    0.3984    0.0000 </r>
       <r>    0.4263    0.0000 </r>
       <r>    1.4627    0.0000 </r>
       <r>    1.4652    0.0000 </r>
       <r>    2.2661    0.0000 </r>
       <r>    2.2671    0.0000 </r>
       <r>    2.4876    0.0000 </r>
      </set>
      <set comment="kpoint 23">
       <r>  -21.6160    1.0000 </r>
       <r>  -21.2550    1.0000 </r>
       <r>  -21.2326    1.0000 </r>
       <r>  -19.0758    1.0000 </r>
       <r>  -19.0445    1.0000 </r>
       <r>  -18.3562    1.0000 </r>
       <r>  -17.0995    1.0000 </r>
       <r>  -17.0753    1.0000 </r>
       <r>  -16.7185    1.0000 </r>
       <r>  -15.6630    1.0000 </r>
       <r>  -15.6331    1.0000 </r>
       <r>  -15.6053    1.0000 </r>
       <r>  -12.9315    1.0000 </r>
       <r>  -12.2663    1.0000 </r>
       <r>  -12.2407    1.0000 </r>
       <r>  -11.3394    1.0000 </r>
       <r>  -10.5856    1.0000 </r>
       <r>  -10.5641    1.0000 </r>
       <r>  -10.5416    1.0000 </r>
       <r>   -9.8252    1.0000 </r>
       <r>   -9.8012    1.0000 </r>
       <r>   -9.5985    1.0000 </r>
       <r>   -9.1704    1.0000 </r>
       <r>   -9.1523    1.0000 </r>
       <r>   -8.8433    1.0000 </r>
       <r>   -8.7928    1.0000 </r>
       <r>   -7.9064    1.0000 </r>
       <r>   -7.7137    1.0000 </r>
       <r>   -7.6639    1.0000 </r>
       <r>   -7.0558    1.0000 </r>
       <r>   -6.6814    1.0000 </r>
       <r>   -6.6534    1.0000 </r>
       <r>   -5.8891    1.0000 </r>
       <r>   -5.0097    1.0000 </r>
       <r>   -4.9873    1.0000 </r>
       <r>   -4.6859    1.0000 </r>
       <r>   -1.2074    0.0000 </r>
       <r>   -1.0499    0.0000 </r>
       <r>   -1.0210    0.0000 </r>
       <r>    0.5173    0.0000 </r>
       <r>    1.3916    0.0000 </r>
       <r>    1.4733    0.0000 </r>
       <r>    1.5064    0.0000 </r>
       <r>    1.8986    0.0000 </r>
       <r>    1.9012    0.0000 </r>
       <r>    2.1936    0.0000 </r>
      </set>
      <set comment="kpoint 24">
       <r>  -21.6157    1.0000 </r>
       <r>  -21.2552    1.0000 </r>
       <r>  -21.2327    1.0000 </r>
       <r>  -19.0765    1.0000 </r>
       <r>  -19.0449    1.0000 </r>
       <r>  -18.3554    1.0000 </r>
       <r>  -17.1035    1.0000 </r>
       <r>  -17.0796    1.0000 </r>
       <r>  -16.7035    1.0000 </r>
       <r>  -15.6942    1.0000 </r>
       <r>  -15.6203    1.0000 </r>
       <r>  -15.5932    1.0000 </r>
       <r>  -12.9049    1.0000 </r>
       <r>  -12.2868    1.0000 </r>
       <r>  -12.2605    1.0000 </r>
       <r>  -11.3690    1.0000 </r>
       <r>  -10.5588    1.0000 </r>
       <r>  -10.5462    1.0000 </r>
       <r>  -10.5177    1.0000 </r>
       <r>   -9.8384    1.0000 </r>
       <r>   -9.8130    1.0000 </r>
       <r>   -9.5995    1.0000 </r>
       <r>   -9.1700    1.0000 </r>
       <r>   -9.1519    1.0000 </r>
       <r>   -8.8503    1.0000 </r>
       <r>   -8.8012    1.0000 </r>
       <r>   -7.8613    1.0000 </r>
       <r>   -7.7081    1.0000 </r>
       <r>   -7.6527    1.0000 </r>
       <r>   -7.1044    1.0000 </r>
       <r>   -6.6768    1.0000 </r>
       <r>   -6.6486    1.0000 </r>
       <r>   -5.8982    1.0000 </r>
       <r>   -5.0230    1.0000 </r>
       <r>   -5.0012    1.0000 </r>
       <r>   -4.6592    1.0000 </r>
       <r>   -1.2490    0.0000 </r>
       <r>   -1.0274    0.0000 </r>
       <r>   -0.9989    0.0000 </r>
       <r>    0.5398    0.0000 </r>
       <r>    1.3914    0.0000 </r>
       <r>    1.4591    0.0000 </r>
       <r>    1.4924    0.0000 </r>
       <r>    1.8987    0.0000 </r>
       <r>    1.9013    0.0000 </r>
       <r>    2.1934    0.0000 </r>
      </set>
      <set comment="kpoint 25">
       <r>  -21.6161    1.0000 </r>
       <r>  -21.2440    1.0000 </r>
       <r>  -21.2435    1.0000 </r>
       <r>  -19.0616    1.0000 </r>
       <r>  -19.0599    1.0000 </r>
       <r>  -18.3552    1.0000 </r>
       <r>  -17.0937    1.0000 </r>
       <r>  -17.0851    1.0000 </r>
       <r>  -16.7110    1.0000 </r>
       <r>  -15.6779    1.0000 </r>
       <r>  -15.6261    1.0000 </r>
       <r>  -15.6007    1.0000 </r>
       <r>  -12.9188    1.0000 </r>
       <r>  -12.2739    1.0000 </r>
       <r>  -12.2530    1.0000 </r>
       <r>  -11.3546    1.0000 </r>
       <r>  -10.5629    1.0000 </r>
       <r>  -10.5559    1.0000 </r>
       <r>  -10.5367    1.0000 </r>
       <r>   -9.8317    1.0000 </r>
       <r>   -9.8079    1.0000 </r>
       <r>   -9.5992    1.0000 </r>
       <r>   -9.1620    1.0000 </r>
       <r>   -9.1601    1.0000 </r>
       <r>   -8.8441    1.0000 </r>
       <r>   -8.7994    1.0000 </r>
       <r>   -7.8851    1.0000 </r>
       <r>   -7.7089    1.0000 </r>
       <r>   -7.6601    1.0000 </r>
       <r>   -7.0794    1.0000 </r>
       <r>   -6.6682    1.0000 </r>
       <r>   -6.6622    1.0000 </r>
       <r>   -5.8934    1.0000 </r>
       <r>   -5.0175    1.0000 </r>
       <r>   -4.9930    1.0000 </r>
       <r>   -4.6725    1.0000 </r>
       <r>   -1.2285    0.0000 </r>
       <r>   -1.0442    0.0000 </r>
       <r>   -1.0041    0.0000 </r>
       <r>    0.5284    0.0000 </r>
       <r>    1.3915    0.0000 </r>
       <r>    1.4736    0.0000 </r>
       <r>    1.4922    0.0000 </r>
       <r>    1.8999    0.0000 </r>
       <r>    1.9001    0.0000 </r>
       <r>    2.1935    0.0000 </r>
      </set>
     </set>
    </set>
   </array>
  </eigenvalues>
  <separator name="orbital magnetization" >
   <v name="MAGDIPOLOUT">      0.00000000      0.00000000      0.00000000</v>
  </separator>
  <dos>
   <i name="efermi">     -2.75522918 </i>
   <total>
    <array>
     <dimension dim="1">gridpoints</dimension>
     <dimension dim="2">spin</dimension>
     <field>energy</field>
     <field>total</field>
     <field>integrated</field>
     <set>
      <set comment="spin 1">
       <r>   -23.5116     0.0000     0.0000 </r>
       <r>   -23.4196     0.0000     0.0000 </r>
       <r>   -23.3275     0.0000     0.0000 </r>
       <r>   -23.2354     0.0000     0.0000 </r>
       <r>   -23.1434     0.0000     0.0000 </r>
       <r>   -23.0513     0.0000     0.0000 </r>
       <r>   -22.9592     0.0000     0.0000 </r>
       <r>   -22.8672     0.0000     0.0000 </r>
       <r>   -22.7751     0.0000     0.0000 </r>
       <r>   -22.6830     0.0000     0.0000 </r>
       <r>   -22.5910     0.0000     0.0000 </r>
       <r>   -22.4989     0.0000     0.0000 </r>
       <r>   -22.4069     0.0000     0.0000 </r>
       <r>   -22.3148     0.0236     0.0022 </r>
       <r>   -22.2227     1.1019     0.1036 </r>
       <r>   -22.1307     2.3662     0.3215 </r>
       <r>   -22.0386     3.5663     0.6498 </r>
       <r>   -21.9465     1.5373     0.7913 </r>
       <r>   -21.8545     4.0224     1.1616 </r>
       <r>   -21.7624     2.8377     1.4229 </r>
       <r>   -21.6704     1.1173     1.5257 </r>
       <r>   -21.5783     3.8755     1.8825 </r>
       <r>   -21.4862     3.8621     2.2381 </r>
       <r>   -21.3942     1.6629     2.3912 </r>
       <r>   -21.3021     1.3594     2.5163 </r>
       <r>   -21.2100     4.1998     2.9030 </r>
       <r>   -21.1180     4.6475     3.3308 </r>
       <r>   -21.0259     1.5078     3.4697 </r>
       <r>   -20.9339     1.1265     3.5734 </r>
       <r>   -20.8418     2.3700     3.7916 </r>
       <r>   -20.7497     5.5218     4.2999 </r>
       <r>   -20.6577     2.1622     4.4990 </r>
       <r>   -20.5656     4.2173     4.8872 </r>
       <r>   -20.4735     0.5601     4.9388 </r>
       <r>   -20.3815     0.5560     4.9900 </r>
       <r>   -20.2894     5.1318     5.4624 </r>
       <r>   -20.1973     4.6845     5.8937 </r>
       <r>   -20.1053     2.8832     6.1591 </r>
       <r>   -20.0132     1.2179     6.2713 </r>
       <r>   -19.9212     3.9148     6.6317 </r>
       <r>   -19.8291     0.2374     6.6535 </r>
       <r>   -19.7370     1.4095     6.7833 </r>
       <r>   -19.6450     7.4680     7.4708 </r>
       <r>   -19.5529     2.7504     7.7240 </r>
       <r>   -19.4608     4.0147     8.0936 </r>
       <r>   -19.3688     0.3238     8.1234 </r>
       <r>   -19.2767     1.8579     8.2945 </r>
       <r>   -19.1847     3.3583     8.6037 </r>
       <r>   -19.0926     1.1446     8.7090 </r>
       <r>   -19.0005     4.6003     9.1326 </r>
       <r>   -18.9085     5.8099     9.6674 </r>
       <r>   -18.8164     2.0943     9.8602 </r>
       <r>   -18.7243     3.9954    10.2281 </r>
       <r>   -18.6323     1.0672    10.3263 </r>
       <r>   -18.5402     0.0553    10.3314 </r>
       <r>   -18.4481     3.0100    10.6085 </r>
       <r>   -18.3561     4.0570    10.9820 </r>
       <r>   -18.2640     5.4810    11.4866 </r>
       <r>   -18.1720     2.6275    11.7285 </r>
       <r>   -18.0799     4.1423    12.1099 </r>
       <r>   -17.9878     1.9886    12.2929 </r>
       <r>   -17.8958     3.8026    12.6430 </r>
       <r>   -17.8037     1.4356    12.7752 </r>
       <r>   -17.7116     0.0072    12.7758 </r>
       <r>   -17.6196     1.8332    12.9446 </r>
       <r>   -17.5275     8.5965    13.7360 </r>
       <r>   -17.4355     4.9526    14.1920 </r>
       <r>   -17.3434     1.5092    14.3309 </r>
       <r>   -17.2513     4.7015    14.7638 </r>
       <r>   -17.1593     2.4276    14.9873 </r>
       <r>   -17.0672     3.8166    15.3386 </r>
       <r>   -16.9751     3.0783    15.6220 </r>
       <r>   -16.8831     1.0019    15.7143 </r>
       <r>   -16.7910     1.5990    15.8615 </r>
       <r>   -16.6989     8.6047    16.6536 </r>
       <r>   -16.6069     5.5619    17.1657 </r>
       <r>   -16.5148     0.1953    17.1837 </r>
       <r>   -16.4228     0.0000    17.1837 </r>
       <r>   -16.3307     0.0000    17.1837 </r>
       <r>   -16.2386     0.0434    17.1877 </r>
       <r>   -16.1466     1.7205    17.3461 </r>
       <r>   -16.0545     1.2015    17.4567 </r>
       <r>   -15.9624     4.7289    17.8920 </r>
       <r>   -15.8704     2.8553    18.1549 </r>
       <r>   -15.7783     0.6033    18.2104 </r>
       <r>   -15.6863     3.2614    18.5107 </r>
       <r>   -15.5942     5.1806    18.9876 </r>
       <r>   -15.5021     1.6770    19.1420 </r>
       <r>   -15.4101     0.0916    19.1505 </r>
       <r>   -15.3180     1.6745    19.3046 </r>
       <r>   -15.2259     9.7535    20.2026 </r>
       <r>   -15.1339     3.5498    20.5294 </r>
       <r>   -15.0418     1.0604    20.6270 </r>
       <r>   -14.9497     4.8496    21.0735 </r>
       <r>   -14.8577     4.3888    21.4775 </r>
       <r>   -14.7656     1.3885    21.6053 </r>
       <r>   -14.6736     2.8180    21.8648 </r>
       <r>   -14.5815     8.3922    22.6374 </r>
       <r>   -14.4894     1.0562    22.7346 </r>
       <r>   -14.3974     0.1140    22.7451 </r>
       <r>   -14.3053     3.7708    23.0923 </r>
       <r>   -14.2132     4.1889    23.4779 </r>
       <r>   -14.1212     4.2833    23.8722 </r>
       <r>   -14.0291     1.0289    23.9670 </r>
       <r>   -13.9371     3.3330    24.2738 </r>
       <r>   -13.8450     1.8952    24.4483 </r>
       <r>   -13.7529     1.2946    24.5675 </r>
       <r>   -13.6609     3.9592    24.9320 </r>
       <r>   -13.5688     2.3399    25.1474 </r>
       <r>   -13.4767     4.2742    25.5409 </r>
       <r>   -13.3847     1.4558    25.6749 </r>
       <r>   -13.2926     2.4797    25.9032 </r>
       <r>   -13.2005     3.6243    26.2369 </r>
       <r>   -13.1085     0.0883    26.2450 </r>
       <r>   -13.0164     0.9590    26.3333 </r>
       <r>   -12.9244     9.1171    27.1726 </r>
       <r>   -12.8323     5.2221    27.6534 </r>
       <r>   -12.7402     3.2524    27.9528 </r>
       <r>   -12.6482     0.3919    27.9889 </r>
       <r>   -12.5561     2.1038    28.1826 </r>
       <r>   -12.4640     0.2946    28.2097 </r>
       <r>   -12.3720     1.6026    28.3572 </r>
       <r>   -12.2799     7.8516    29.0801 </r>
       <r>   -12.1879     8.7112    29.8821 </r>
       <r>   -12.0958     3.0079    30.1590 </r>
       <r>   -12.0037     0.0586    30.1644 </r>
       <r>   -11.9117     1.9553    30.3444 </r>
       <r>   -11.8196     3.3389    30.6518 </r>
       <r>   -11.7275     3.7014    30.9925 </r>
       <r>   -11.6355     6.3976    31.5815 </r>
       <r>   -11.5434     0.5549    31.6326 </r>
       <r>   -11.4513     0.2549    31.6561 </r>
       <r>   -11.3593     6.4696    32.2517 </r>
       <r>   -11.2672     6.0804    32.8115 </r>
       <r>   -11.1752     3.3547    33.1203 </r>
       <r>   -11.0831     5.4863    33.6254 </r>
       <r>   -10.9910     4.7808    34.0655 </r>
       <r>   -10.8990     2.7877    34.3222 </r>
       <r>   -10.8069     0.0472    34.3265 </r>
       <r>   -10.7148     0.0076    34.3272 </r>
       <r>   -10.6228     1.7082    34.4845 </r>
       <r>   -10.5307    10.8563    35.4840 </r>
       <r>   -10.4387    10.4444    36.4455 </r>
       <r>   -10.3466     3.0380    36.7252 </r>
       <r>   -10.2545     5.8661    37.2652 </r>
       <r>   -10.1625     2.0959    37.4582 </r>
       <r>   -10.0704     4.3950    37.8628 </r>
       <r>    -9.9783     4.9026    38.3142 </r>
       <r>    -9.8863    10.8185    39.3101 </r>
       <r>    -9.7942     9.9213    40.2235 </r>
       <r>    -9.7022     6.3245    40.8058 </r>
       <r>    -9.6101     8.6170    41.5991 </r>
       <r>    -9.5180     9.0238    42.4299 </r>
       <r>    -9.4260     5.3943    42.9265 </r>
       <r>    -9.3339     3.9293    43.2882 </r>
       <r>    -9.2418    10.1813    44.2255 </r>
       <r>    -9.1498    12.2072    45.3494 </r>
       <r>    -9.0577    14.5551    46.6894 </r>
       <r>    -8.9656     6.9929    47.3331 </r>
       <r>    -8.8736     3.4041    47.6465 </r>
       <r>    -8.7815    11.8884    48.7410 </r>
       <r>    -8.6895     7.0246    49.3877 </r>
       <r>    -8.5974     7.5266    50.0806 </r>
       <r>    -8.5053     6.8942    50.7154 </r>
       <r>    -8.4133     8.1604    51.4666 </r>
       <r>    -8.3212     3.3850    51.7783 </r>
       <r>    -8.2291     3.9371    52.1407 </r>
       <r>    -8.1371     5.7665    52.6716 </r>
       <r>    -8.0450    13.3750    53.9029 </r>
       <r>    -7.9530     5.5676    54.4155 </r>
       <r>    -7.8609     4.8787    54.8647 </r>
       <r>    -7.7688     1.3041    54.9847 </r>
       <r>    -7.6768     8.1999    55.7396 </r>
       <r>    -7.5847     7.1629    56.3991 </r>
       <r>    -7.4926     5.0523    56.8642 </r>
       <r>    -7.4006     3.0925    57.1489 </r>
       <r>    -7.3085     7.2276    57.8143 </r>
       <r>    -7.2164     2.4585    58.0406 </r>
       <r>    -7.1244     9.8618    58.9485 </r>
       <r>    -7.0323     7.5484    59.6435 </r>
       <r>    -6.9403     3.7493    59.9886 </r>
       <r>    -6.8482     3.5581    60.3162 </r>
       <r>    -6.7561     0.1742    60.3323 </r>
       <r>    -6.6641     4.3723    60.7348 </r>
       <r>    -6.5720    10.5039    61.7018 </r>
       <r>    -6.4799     8.7550    62.5078 </r>
       <r>    -6.3879     4.1654    62.8913 </r>
       <r>    -6.2958     4.0494    63.2641 </r>
       <r>    -6.2038     1.7292    63.4233 </r>
       <r>    -6.1117     4.9350    63.8776 </r>
       <r>    -6.0196     4.9994    64.3379 </r>
       <r>    -5.9276     2.7434    64.5905 </r>
       <r>    -5.8355     7.9004    65.3178 </r>
       <r>    -5.7434     7.1551    65.9765 </r>
       <r>    -5.6514     3.4775    66.2967 </r>
       <r>    -5.5593     3.7994    66.6464 </r>
       <r>    -5.4672     1.4654    66.7813 </r>
       <r>    -5.3752     3.2044    67.0763 </r>
       <r>    -5.2831     2.0697    67.2669 </r>
       <r>    -5.1911     1.5492    67.4095 </r>
       <r>    -5.0990     3.3211    67.7153 </r>
       <r>    -5.0069    15.4482    69.1375 </r>
       <r>    -4.9149     6.1942    69.7077 </r>
       <r>    -4.8228     0.0713    69.7143 </r>
       <r>    -4.7307     0.1540    69.7285 </r>
       <r>    -4.6387     2.0261    69.9150 </r>
       <r>    -4.5466     0.4841    69.9596 </r>
       <r>    -4.4546     1.4621    70.0942 </r>
       <r>    -4.3625     3.9302    70.4560 </r>
       <r>    -4.2704     5.0430    70.9203 </r>
       <r>    -4.1784     2.8226    71.1801 </r>
       <r>    -4.0863     0.0385    71.1837 </r>
       <r>    -3.9942     0.0134    71.1849 </r>
       <r>    -3.9022     1.2343    71.2985 </r>
       <r>    -3.8101     1.3915    71.4266 </r>
       <r>    -3.7180     0.0209    71.4286 </r>
       <r>    -3.6260     0.0184    71.4303 </r>
       <r>    -3.5339     2.2318    71.6357 </r>
       <r>    -3.4419     3.0145    71.9132 </r>
       <r>    -3.3498     0.0556    71.9184 </r>
       <r>    -3.2577     0.0000    71.9184 </r>
       <r>    -3.1657     0.0000    71.9184 </r>
       <r>    -3.0736     0.0000    71.9184 </r>
       <r>    -2.9815     0.0000    71.9184 </r>
       <r>    -2.8895     0.0008    71.9184 </r>
       <r>    -2.7974     0.2735    71.9436 </r>
       <r>    -2.7054     1.2965    72.0630 </r>
       <r>    -2.6133     0.2023    72.0816 </r>
       <r>    -2.5212     0.0004    72.0816 </r>
       <r>    -2.4292     0.0000    72.0816 </r>
       <r>    -2.3371     0.0000    72.0816 </r>
       <r>    -2.2450     0.0000    72.0816 </r>
       <r>    -2.1530     0.0002    72.0816 </r>
       <r>    -2.0609     0.3428    72.1132 </r>
       <r>    -1.9688     4.0752    72.4884 </r>
       <r>    -1.8768     0.9006    72.5713 </r>
       <r>    -1.7847     0.0703    72.5778 </r>
       <r>    -1.6927     1.7346    72.7375 </r>
       <r>    -1.6006     0.8517    72.8159 </r>
       <r>    -1.5085     0.0051    72.8163 </r>
       <r>    -1.4165     0.0054    72.8168 </r>
       <r>    -1.3244     2.1289    73.0128 </r>
       <r>    -1.2323    11.1707    74.0412 </r>
       <r>    -1.1403     2.9035    74.3085 </r>
       <r>    -1.0482     3.5559    74.6359 </r>
       <r>    -0.9562     5.6537    75.1564 </r>
       <r>    -0.8641     1.9570    75.3366 </r>
       <r>    -0.7720     4.0963    75.7137 </r>
       <r>    -0.6800     3.4615    76.0324 </r>
       <r>    -0.5879     4.7595    76.4705 </r>
       <r>    -0.4958     2.9733    76.7443 </r>
       <r>    -0.4038     3.7731    77.0916 </r>
       <r>    -0.3117     3.3033    77.3957 </r>
       <r>    -0.2196     5.1547    77.8703 </r>
       <r>    -0.1276     0.9608    77.9587 </r>
       <r>    -0.0355     0.0054    77.9592 </r>
       <r>     0.0565     0.5987    78.0144 </r>
       <r>     0.1486     4.1205    78.3937 </r>
       <r>     0.2407     1.6595    78.5465 </r>
       <r>     0.3327     4.0368    78.9181 </r>
       <r>     0.4248     3.6366    79.2529 </r>
       <r>     0.5169     3.1449    79.5425 </r>
       <r>     0.6089     3.6438    79.8779 </r>
       <r>     0.7010     1.3436    80.0016 </r>
       <r>     0.7930     5.8503    80.5402 </r>
       <r>     0.8851     5.8776    81.0813 </r>
       <r>     0.9772     1.5029    81.2197 </r>
       <r>     1.0692     4.2829    81.6140 </r>
       <r>     1.1613     1.8449    81.7838 </r>
       <r>     1.2534     5.6246    82.3016 </r>
       <r>     1.3454     2.1347    82.4982 </r>
       <r>     1.4375     7.1166    83.1534 </r>
       <r>     1.5295    13.7530    84.4195 </r>
       <r>     1.6216     4.6167    84.8445 </r>
       <r>     1.7137     4.7129    85.2784 </r>
       <r>     1.8057     3.3378    85.5857 </r>
       <r>     1.8978     8.8866    86.4038 </r>
       <r>     1.9899     8.8761    87.2210 </r>
       <r>     2.0819     9.1396    88.0624 </r>
       <r>     2.1740     7.0769    88.7139 </r>
       <r>     2.2661     6.7999    89.3400 </r>
       <r>     2.3581     7.2645    90.0087 </r>
       <r>     2.4502     5.0145    90.4704 </r>
       <r>     2.5422     4.3349    90.8695 </r>
       <r>     2.6343     2.9217    91.1385 </r>
       <r>     2.7264     2.2884    91.3491 </r>
       <r>     2.8184     4.4615    91.7599 </r>
       <r>     2.9105     2.4786    91.9881 </r>
       <r>     3.0026     0.1297    92.0000 </r>
       <r>     3.0946     0.0000    92.0000 </r>
       <r>     3.1867     0.0000    92.0000 </r>
       <r>     3.2787     0.0000    92.0000 </r>
       <r>     3.3708     0.0000    92.0000 </r>
       <r>     3.4629     0.0000    92.0000 </r>
       <r>     3.5549     0.0000    92.0000 </r>
       <r>     3.6470     0.0000    92.0000 </r>
       <r>     3.7391     0.0000    92.0000 </r>
       <r>     3.8311     0.0000    92.0000 </r>
       <r>     3.9232     0.0000    92.0000 </r>
       <r>     4.0153     0.0000    92.0000 </r>
       <r>     4.1073     0.0000    92.0000 </r>
      </set>
     </set>
    </array>
   </total>
  </dos>
 </calculation>
 <structure name="finalpos" >
  <crystal>
   <varray name="basis" >
    <v>       7.40170591       0.00000000       0.00000000 </v>
    <v>      -3.70085295       6.41006527       0.00000000 </v>
    <v>       0.00000000       0.00000000      20.00000000 </v>
   </varray>
   <i name="volume">    948.90835877 </i>
   <varray name="rec_basis" >
    <v>       0.13510399       0.07800233       0.00000000 </v>
    <v>       0.00000000       0.15600465       0.00000000 </v>
    <v>       0.00000000       0.00000000       0.05000000 </v>
   </varray>
  </crystal>
  <varray name="positions" >
   <v>       0.00270208       0.00000000       0.50000000 </v>
   <v>       0.33333333       0.00000000       0.50000000 </v>
   <v>       0.66666667       0.00000000       0.50000000 </v>
   <v>       0.00000000       0.33333333       0.50000000 </v>
   <v>       0.33333333       0.33333333       0.50000000 </v>
   <v>       0.66666667       0.33333333       0.50000000 </v>
   <v>       0.00000000       0.66666667       0.50000000 </v>
   <v>       0.33333333       0.66666667       0.50000000 </v>
   <v>       0.66666667       0.66666667       0.50000000 </v>
   <v>       0.22222222       0.11111111       0.50000000 </v>
   <v>       0.55555556       0.11111111       0.50000000 </v>
   <v>       0.88888889       0.11111111       0.50000000 </v>
   <v>       0.22222222       0.44444444       0.50000000 </v>
   <v>       0.55555556       0.44444444       0.50000000 </v>
   <v>       0.88888889       0.44444444       0.50000000 </v>
   <v>       0.22222222       0.77777778       0.50000000 </v>
   <v>       0.55555556       0.77777778       0.50000000 </v>
   <v>       0.88888889       0.77777778       0.50000000 </v>
  </varray>
 </structure>
</modeling>
