<?xml version="1.0" encoding="ISO-8859-1"?>
<modeling>
 <generator>
  <i name="program" type="string">vasp </i>
  <i name="version" type="string">6.4.1  </i>
  <i name="subversion" type="string">05Apr23 (build Feb 12 2025 00:37:39) complex                          parallel </i>
  <i name="platform" type="string">LinuxIFC </i>
  <i name="date" type="string">2025 02 14 </i>
  <i name="time" type="string">05:54:43 </i>
 </generator>
 <incar>
  <i type="string" name="SYSTEM">SCF</i>
  <i type="int" name="ISTART">     0</i>
  <i type="int" name="ICHARG">     2</i>
  <i type="int" name="NELM">    60</i>
  <i type="int" name="NELMIN">     6</i>
  <i name="EDIFF">      0.00000100</i>
  <i name="EDIFFG">     -0.00000100</i>
  <i name="ENCUT">    600.00000000</i>
  <i type="string" name="LREAL">Auto</i>
  <i type="int" name="ISMEAR">     0</i>
  <i name="SIGMA">      0.05000000</i>
  <i type="logical" name="LWAVE"> F  </i>
  <i type="logical" name="LCHARG"> F  </i>
 </incar>
 <primitive_cell>
  <structure name="primitive_cell" >
   <crystal>
    <varray name="basis" >
     <v>       7.40170591       0.00000000       0.00000000 </v>
     <v>      -3.70085295       6.41006527       0.00000000 </v>
     <v>       0.00000000       0.00000000      20.00000000 </v>
    </varray>
    <i name="volume">    948.90835877 </i>
    <varray name="rec_basis" >
     <v>       0.13510399       0.07800233       0.00000000 </v>
     <v>       0.00000000       0.15600465       0.00000000 </v>
     <v>       0.00000000       0.00000000       0.05000000 </v>
    </varray>
   </crystal>
   <varray name="positions" >
    <v>       0.00000000       0.00000000       0.49950000 </v>
    <v>       0.33333333       0.00000000       0.50000000 </v>
    <v>       0.66666667       0.00000000       0.50000000 </v>
    <v>       1.00000000       0.33333333       0.50000000 </v>
    <v>       0.33333333       0.33333333       0.50000000 </v>
    <v>       0.66666667       0.33333333       0.50000000 </v>
    <v>       1.00000000       0.66666667       0.50000000 </v>
    <v>       0.33333333       0.66666667       0.50000000 </v>
    <v>       0.66666667       0.66666667       0.50000000 </v>
    <v>       0.22144220       0.10955106       0.50000000 </v>
    <v>       0.55555556       0.11111111       0.50000000 </v>
    <v>       0.88888889       0.11111111       0.50000000 </v>
    <v>       0.22222222       0.44444444       0.50000000 </v>
    <v>       0.55555556       0.44444444       0.50000000 </v>
    <v>       0.88888889       0.44444444       0.50000000 </v>
    <v>       0.22222222       0.77777778       0.50000000 </v>
    <v>       0.55555556       0.77777778       0.50000000 </v>
    <v>       0.88888889       0.77777778       0.50000000 </v>
   </varray>
  </structure>
  <varray name="primitive_index" >
   <v type="int" >        1 </v>
   <v type="int" >        2 </v>
   <v type="int" >        3 </v>
   <v type="int" >        4 </v>
   <v type="int" >        5 </v>
   <v type="int" >        6 </v>
   <v type="int" >        7 </v>
   <v type="int" >        8 </v>
   <v type="int" >        9 </v>
   <v type="int" >       10 </v>
   <v type="int" >       11 </v>
   <v type="int" >       12 </v>
   <v type="int" >       13 </v>
   <v type="int" >       14 </v>
   <v type="int" >       15 </v>
   <v type="int" >       16 </v>
   <v type="int" >       17 </v>
   <v type="int" >       18 </v>
  </varray>
 </primitive_cell>
 <kpoints>
  <generation param="Gamma">
   <v type="int" name="divisions">       7        7        1 </v>
   <v name="usershift">      0.00000000       0.00000000       0.00000000 </v>
   <v name="genvec1">      0.14285714       0.00000000       0.00000000 </v>
   <v name="genvec2">      0.00000000       0.14285714       0.00000000 </v>
   <v name="genvec3">      0.00000000       0.00000000       1.00000000 </v>
   <v name="shift">      0.00000000       0.00000000       0.00000000 </v>
  </generation>
  <varray name="kpointlist" >
   <v>       0.00000000       0.00000000       0.00000000 </v>
   <v>       0.14285714       0.00000000       0.00000000 </v>
   <v>       0.00000000       0.14285714       0.00000000 </v>
   <v>      -0.14285714       0.14285714       0.00000000 </v>
   <v>       0.28571429       0.00000000       0.00000000 </v>
   <v>       0.00000000       0.28571429       0.00000000 </v>
   <v>      -0.28571429       0.28571429       0.00000000 </v>
   <v>       0.42857143       0.00000000       0.00000000 </v>
   <v>       0.00000000       0.42857143       0.00000000 </v>
   <v>      -0.42857143       0.42857143       0.00000000 </v>
   <v>       0.14285714       0.14285714       0.00000000 </v>
   <v>      -0.14285714       0.28571429       0.00000000 </v>
   <v>      -0.28571429       0.14285714       0.00000000 </v>
   <v>       0.28571429       0.14285714       0.00000000 </v>
   <v>      -0.14285714       0.42857143       0.00000000 </v>
   <v>      -0.42857143       0.28571429       0.00000000 </v>
   <v>      -0.28571429       0.42857143       0.00000000 </v>
   <v>       0.14285714       0.28571429       0.00000000 </v>
   <v>       0.42857143      -0.14285714       0.00000000 </v>
   <v>       0.42857143       0.14285714       0.00000000 </v>
   <v>      -0.14285714      -0.42857143       0.00000000 </v>
   <v>       0.42857143       0.42857143       0.00000000 </v>
   <v>       0.28571429       0.28571429       0.00000000 </v>
   <v>      -0.28571429      -0.42857143       0.00000000 </v>
   <v>       0.42857143       0.28571429       0.00000000 </v>
  </varray>
  <varray name="weights" >
   <v>       0.02040816 </v>
   <v>       0.04081633 </v>
   <v>       0.04081633 </v>
   <v>       0.04081633 </v>
   <v>       0.04081633 </v>
   <v>       0.04081633 </v>
   <v>       0.04081633 </v>
   <v>       0.04081633 </v>
   <v>       0.04081633 </v>
   <v>       0.04081633 </v>
   <v>       0.04081633 </v>
   <v>       0.04081633 </v>
   <v>       0.04081633 </v>
   <v>       0.04081633 </v>
   <v>       0.04081633 </v>
   <v>       0.04081633 </v>
   <v>       0.04081633 </v>
   <v>       0.04081633 </v>
   <v>       0.04081633 </v>
   <v>       0.04081633 </v>
   <v>       0.04081633 </v>
   <v>       0.04081633 </v>
   <v>       0.04081633 </v>
   <v>       0.04081633 </v>
   <v>       0.04081633 </v>
  </varray>
 </kpoints>
 <parameters>
  <separator name="general" >
   <i type="string" name="SYSTEM">SCF</i>
   <i type="logical" name="LCOMPAT"> F  </i>
  </separator>
  <separator name="electronic" >
   <i type="string" name="PREC">normal</i>
   <i name="ENMAX">    600.00000000</i>
   <i name="ENAUG">    644.87300000</i>
   <i name="EDIFF">      0.00000100</i>
   <i type="int" name="IALGO">    38</i>
   <i type="int" name="IWAVPR">    10</i>
   <i type="int" name="NBANDS">    46</i>
   <i type="int" name="NBANDSLOW">    -1</i>
   <i type="int" name="NBANDSHIGH">    -1</i>
   <i name="NELECT">     72.00000000</i>
   <i type="int" name="TURBO">     0</i>
   <i type="int" name="IRESTART">     0</i>
   <i type="int" name="NREBOOT">     0</i>
   <i type="int" name="NMIN">     0</i>
   <i name="EREF">      0.00000000</i>
   <separator name="electronic smearing" >
    <i type="int" name="ISMEAR">     0</i>
    <i name="SIGMA">      0.05000000</i>
    <i name="KSPACING">      0.50000000</i>
    <i type="logical" name="KGAMMA"> T  </i>
    <i type="logical" name="KBLOWUP"> T  </i>
   </separator>
   <separator name="electronic projectors" >
    <i type="logical" name="LREAL"> T  </i>
    <v name="ROPT">     -0.00050000</v>
    <i type="int" name="LMAXPAW">  -100</i>
    <i type="int" name="LMAXMIX">     2</i>
    <i type="logical" name="NLSPLINE"> F  </i>
   </separator>
   <separator name="electronic startup" >
    <i type="int" name="ISTART">     0</i>
    <i type="int" name="ICHARG">     2</i>
    <i type="int" name="INIWAV">     1</i>
   </separator>
   <separator name="electronic spin" >
    <i type="int" name="ISPIN">     1</i>
    <i type="logical" name="LNONCOLLINEAR"> F  </i>
    <v name="MAGMOM">      1.00000000      1.00000000      1.00000000      1.00000000      1.00000000      1.00000000      1.00000000      1.00000000      1.00000000      1.00000000      1.00000000      1.00000000      1.00000000      1.00000000      1.00000000      1.00000000      1.00000000      1.00000000</v>
    <i name="NUPDOWN">     -1.00000000</i>
    <i type="logical" name="LSORBIT"> F  </i>
    <v name="SAXIS">      0.00000000      0.00000000      1.00000000</v>
    <i type="logical" name="LSPIRAL"> F  </i>
    <v name="QSPIRAL">      0.00000000      0.00000000      0.00000000</v>
    <i type="logical" name="LZEROZ"> F  </i>
   </separator>
   <separator name="electronic exchange-correlation" >
    <i type="logical" name="LASPH"> F  </i>
    <i type="logical" name="LMETAGGA"> F  </i>
   </separator>
   <separator name="electronic convergence" >
    <i type="int" name="NELM">    60</i>
    <i type="int" name="NELMDL">    -5</i>
    <i type="int" name="NELMIN">     6</i>
    <i name="ENINI">    600.00000000</i>
    <separator name="electronic convergence detail" >
     <i type="logical" name="LDIAG"> T  </i>
     <i type="logical" name="LSUBROT"> F  </i>
     <i name="WEIMIN">      0.00000000</i>
     <i name="EBREAK">      0.00000000</i>
     <i name="DEPER">      0.30000000</i>
     <i type="int" name="NRMM">     4</i>
     <i name="TIME">      0.40000000</i>
    </separator>
   </separator>
   <separator name="electronic mixer" >
    <i name="AMIX">      0.40000000</i>
    <i name="BMIX">      1.00000000</i>
    <i name="AMIN">      0.10000000</i>
    <i name="AMIX_MAG">      1.60000000</i>
    <i name="BMIX_MAG">      1.00000000</i>
    <separator name="electronic mixer details" >
     <i type="int" name="IMIX">     4</i>
     <i type="logical" name="MIXFIRST"> F  </i>
     <i type="int" name="MAXMIX">   -45</i>
     <i name="WC">    100.00000000</i>
     <i type="int" name="INIMIX">     1</i>
     <i type="int" name="MIXPRE">     1</i>
     <i type="int" name="MREMOVE">     5</i>
    </separator>
   </separator>
   <separator name="electronic dipolcorrection" >
    <i type="logical" name="LDIPOL"> F  </i>
    <i type="logical" name="LMONO"> F  </i>
    <i type="int" name="IDIPOL">     0</i>
    <i name="EPSILON">      1.00000000</i>
    <v name="DIPOL">   -100.00000000   -100.00000000   -100.00000000</v>
    <i name="EFIELD">      0.00000000</i>
   </separator>
  </separator>
  <separator name="grids" >
   <i type="int" name="NGX">    48</i>
   <i type="int" name="NGY">    48</i>
   <i type="int" name="NGZ">   120</i>
   <i type="int" name="NGXF">    96</i>
   <i type="int" name="NGYF">    96</i>
   <i type="int" name="NGZF">   240</i>
   <i type="logical" name="ADDGRID"> F  </i>
  </separator>
  <separator name="ionic" >
   <i type="int" name="NSW">     0</i>
   <i type="int" name="IBRION">    -1</i>
   <i type="int" name="MDALGO">     0</i>
   <i type="int" name="ISIF">     2</i>
   <i name="PSTRESS">      0.00000000</i>
   <i name="EDIFFG">     -0.00000100</i>
   <i type="int" name="NFREE">     0</i>
   <i name="POTIM">      0.50000000</i>
   <i name="SMASS">     -3.00000000</i>
   <i name="SCALEE">      1.00000000</i>
  </separator>
  <separator name="ionic md" >
   <i name="TEBEG">      0.00010000</i>
   <i name="TEEND">      0.00010000</i>
   <i type="int" name="NBLOCK">     1</i>
   <i type="int" name="KBLOCK">     1</i>
   <i type="int" name="NPACO">   256</i>
   <i name="APACO">     10.00000000</i>
  </separator>
  <separator name="symmetry" >
   <i type="int" name="ISYM">     2</i>
   <i name="SYMPREC">      0.00001000</i>
  </separator>
  <separator name="dos" >
   <i type="int" name="LORBIT">     0</i>
   <v name="RWIGS">     -1.00000000</v>
   <i type="int" name="NEDOS">   301</i>
   <i name="EMIN">     10.00000000</i>
   <i name="EMAX">    -10.00000000</i>
   <i name="EFERMI">      0.00000000</i>
  </separator>
  <separator name="writing" >
   <i type="int" name="NWRITE">     2</i>
   <i type="logical" name="LWAVE"> F  </i>
   <i type="logical" name="LDOWNSAMPLE"> F  </i>
   <i type="logical" name="LCHARG"> F  </i>
   <i type="logical" name="LPARD"> F  </i>
   <i type="logical" name="LVTOT"> F  </i>
   <i type="logical" name="LVHAR"> F  </i>
   <i type="logical" name="LELF"> F  </i>
   <i type="logical" name="LOPTICS"> F  </i>
   <v name="STM">      0.00000000      0.00000000      0.00000000      0.00000000      0.00000000      0.00000000      0.00000000</v>
  </separator>
  <separator name="performance" >
   <i type="int" name="NPAR">     2</i>
   <i type="int" name="NSIM">     4</i>
   <i type="int" name="NBLK">    -1</i>
   <i type="logical" name="LPLANE"> T  </i>
   <i type="logical" name="LSCALAPACK"> T  </i>
   <i type="logical" name="LSCAAWARE"> F  </i>
   <i type="logical" name="LSCALU"> F  </i>
   <i type="logical" name="LASYNC"> F  </i>
   <i type="logical" name="LORBITALREAL"> F  </i>
  </separator>
  <separator name="miscellaneous" >
   <i type="int" name="IDIOT">     3</i>
   <i type="int" name="PHON_NSTRUCT">    -1</i>
   <i type="logical" name="LMUSIC"> F  </i>
   <v name="POMASS">     12.01100000</v>
   <v name="DARWINR">      0.00000000</v>
   <v name="DARWINV">      1.00000000</v>
   <i type="logical" name="LCORR"> T  </i>
  </separator>
  <i type="logical" name="GGA_COMPAT"> T  </i>
  <i type="logical" name="LBERRY"> F  </i>
  <i type="int" name="ICORELEVEL">     0</i>
  <i type="logical" name="LDAU"> F  </i>
  <i type="int" name="I_CONSTRAINED_M">     0</i>
  <separator name="electronic exchange-correlation" >
   <i type="string" name="GGA">--</i>
   <i type="int" name="VOSKOWN">     0</i>
   <i type="logical" name="LHFCALC"> F  </i>
   <i type="string" name="PRECFOCK"></i>
   <i type="logical" name="LSYMGRAD"> F  </i>
   <i type="logical" name="LHFONE"> F  </i>
   <i type="logical" name="LRHFCALC"> F  </i>
   <i type="logical" name="LTHOMAS"> F  </i>
   <i type="logical" name="LMODELHF"> F  </i>
   <i type="logical" name="LFOCKACE"> F  </i>
   <i name="ENCUT4O">     -1.00000000</i>
   <i type="int" name="EXXOEP">     0</i>
   <i type="int" name="FOURORBIT">     0</i>
   <i name="AEXX">      0.00000000</i>
   <i name="HFALPHA">      0.00000000</i>
   <i name="MCALPHA">      0.00000000</i>
   <i name="ALDAX">      1.00000000</i>
   <i name="AGGAX">      1.00000000</i>
   <i name="ALDAC">      1.00000000</i>
   <i name="AGGAC">      1.00000000</i>
   <i type="int" name="NKREDX">     1</i>
   <i type="int" name="NKREDY">     1</i>
   <i type="int" name="NKREDZ">     1</i>
   <i type="logical" name="SHIFTRED"> F  </i>
   <i type="logical" name="ODDONLY"> F  </i>
   <i type="logical" name="EVENONLY"> F  </i>
   <i type="int" name="LMAXFOCK">     0</i>
   <i type="int" name="NMAXFOCKAE">     0</i>
   <i type="logical" name="LFOCKAEDFT"> F  </i>
   <i name="HFSCREEN">      0.00000000</i>
   <i name="HFSCREENC">      0.00000000</i>
   <i type="int" name="NBANDSGWLOW">     0</i>
  </separator>
  <separator name="vdW DFT" >
   <i type="logical" name="LUSE_VDW"> F  </i>
   <i type="int" name="IVDW_NL">     1</i>
   <i type="logical" name="LSPIN_VDW"> F  </i>
   <i name="Zab_VDW">     -0.84910000</i>
   <i name="PARAM1">      0.12340000</i>
   <i name="PARAM2">      1.00000000</i>
   <i name="PARAM3">      0.00000000</i>
  </separator>
  <separator name="model GW" >
   <i type="int" name="MODEL_GW">     0</i>
   <i name="MODEL_EPS0">     31.63027863</i>
   <i name="MODEL_ALPHA">      1.00000000</i>
  </separator>
  <separator name="linear response parameters" >
   <i type="logical" name="LEPSILON"> F  </i>
   <i type="logical" name="LRPA"> F  </i>
   <i type="logical" name="LNABLA"> F  </i>
   <i type="logical" name="LVEL"> F  </i>
   <i name="CSHIFT">      0.10000000</i>
   <i name="OMEGAMAX">     -1.00000000</i>
   <i name="DEG_THRESHOLD">      0.00200000</i>
   <i name="RTIME">     -0.10000000</i>
   <i name="WPLASMAI">      0.00000000</i>
   <v name="DFIELD">      0.00000000      0.00000000      0.00000000</v>
   <v name="WPLASMA">      0.00000000      0.00000000      0.00000000      0.00000000      0.00000000      0.00000000      0.00000000      0.00000000      0.00000000</v>
  </separator>
  <separator name="orbital magnetization" >
   <i type="logical" name="NUCIND"> F  </i>
   <v name="MAGPOS">      0.00000000      0.00000000      0.00000000</v>
   <i type="logical" name="LNICSALL"> T  </i>
   <i type="logical" name="ORBITALMAG"> F  </i>
   <i type="logical" name="LMAGBLOCH"> F  </i>
   <i type="logical" name="LCHIMAG"> F  </i>
   <i type="logical" name="LGAUGE"> T  </i>
   <i type="int" name="MAGATOM">     0</i>
   <v name="MAGDIPOL">      0.00000000      0.00000000      0.00000000</v>
   <v name="AVECCONST">      0.00000000      0.00000000      0.00000000</v>
  </separator>
  <separator name="response functions" >
   <i type="logical" name="LALL_IN_ONE"> F  </i>
   <i type="int" name="IALL_IN_ONE">    -1</i>
   <i type="int" name="NBANDS_WAVE">    -1</i>
   <i type="logical" name="LFINITE_TEMPERATURE"> F  </i>
   <i type="logical" name="LADDER"> F  </i>
   <i type="logical" name="LRPAFORCE"> F  </i>
   <i type="logical" name="LFXC"> F  </i>
   <i type="logical" name="LHARTREE"> T  </i>
   <i type="int" name="IBSE">     0</i>
   <v type="int" name="KPOINT">    -1     0     0     0</v>
   <i type="logical" name="LTCTC"> F  </i>
   <i type="logical" name="LTCTE"> F  </i>
   <i type="logical" name="LTETE"> F  </i>
   <i type="logical" name="LTRIPLET"> F  </i>
   <i type="logical" name="LFXCEPS"> F  </i>
   <i type="logical" name="LFXHEG"> F  </i>
   <i type="int" name="NATURALO">     2</i>
   <i type="logical" name="LHOLEGF"> F  </i>
   <i type="logical" name="L2ORDER"> F  </i>
   <i type="logical" name="LDMP1"> F  </i>
   <i type="logical" name="LMP2LT"> F  </i>
   <i type="logical" name="LSMP2LT"> F  </i>
   <i type="logical" name="LGWLF"> F  </i>
   <i name="ENCUTGW">     -1.60000002</i>
   <i name="ENCUTGWSOFT">     -1.60000002</i>
   <i name="ENCUTLF">     -1.00000000</i>
   <i type="logical" name="LESF_SPLINES"> F  </i>
   <i type="int" name="LMAXMP2">    -1</i>
   <i name="SCISSOR">      0.00000000</i>
   <i type="int" name="NOMEGA">     0</i>
   <i type="int" name="NOMEGAR">     0</i>
   <i type="int" name="NBANDSGW">    -1</i>
   <i type="int" name="NBANDSO">    -1</i>
   <i type="int" name="NBANDSV">    -1</i>
   <i type="int" name="NELMGW">     1</i>
   <i type="int" name="NELMHF">     1</i>
   <i type="int" name="DIM">     3</i>
   <i type="int" name="IESPILON">     4</i>
   <i type="int" name="ANTIRES">     0</i>
   <i name="OMEGAMAX">    -30.00000000</i>
   <i name="OMEGAMIN">    -30.00000000</i>
   <i name="OMEGATL">   -200.00000000</i>
   <i type="int" name="OMEGAGRID">     0</i>
   <i name="CSHIFT">     -0.10000000</i>
   <i type="logical" name="LSELFENERGY"> F  </i>
   <i type="logical" name="LSPECTRAL"> F  </i>
   <i type="logical" name="LSPECTRALGW"> F  </i>
   <i type="logical" name="LSINGLES"> F  </i>
   <i type="logical" name="LFERMIGW"> F  </i>
   <i type="logical" name="ODDONLYGW"> F  </i>
   <i type="logical" name="EVENONLYGW"> F  </i>
   <i type="int" name="NKREDLFX">     1</i>
   <i type="int" name="NKREDLFY">     1</i>
   <i type="int" name="NKREDLFZ">     1</i>
   <i type="int" name="MAXMEM">  2800</i>
   <i type="int" name="TELESCOPE">     0</i>
   <i type="int" name="NTAUPAR">    -1</i>
   <i type="int" name="NOMEGAPAR">    -1</i>
   <i name="DAMP_NEWTON">      0.80000001</i>
   <i name="LAMBDA">      1.00000000</i>
  </separator>
  <separator name="External order field" >
   <i name="OFIELD_KAPPA">      0.00000000</i>
   <v name="OFIELD_K">      0.00000000      0.00000000      0.00000000</v>
   <i name="OFIELD_Q6_NEAR">      0.00000000</i>
   <i name="OFIELD_Q6_FAR">      0.00000000</i>
   <i name="OFIELD_A">      0.00000000</i>
  </separator>
  <separator name="optional k-points parameters" >
   <i type="int" name="KPOINTS_OPT_MODE">     1</i>
   <i type="logical" name="LKPOINTS_OPT"> F  </i>
  </separator>
 </parameters>
 <atominfo>
  <atoms>      18 </atoms>
  <types>       1 </types>
  <array name="atoms" >
   <dimension dim="1">ion</dimension>
   <field type="string">element</field>
   <field type="int">atomtype</field>
   <set>
    <rc><c>C </c><c>   1</c></rc>
    <rc><c>C </c><c>   1</c></rc>
    <rc><c>C </c><c>   1</c></rc>
    <rc><c>C </c><c>   1</c></rc>
    <rc><c>C </c><c>   1</c></rc>
    <rc><c>C </c><c>   1</c></rc>
    <rc><c>C </c><c>   1</c></rc>
    <rc><c>C </c><c>   1</c></rc>
    <rc><c>C </c><c>   1</c></rc>
    <rc><c>C </c><c>   1</c></rc>
    <rc><c>C </c><c>   1</c></rc>
    <rc><c>C </c><c>   1</c></rc>
    <rc><c>C </c><c>   1</c></rc>
    <rc><c>C </c><c>   1</c></rc>
    <rc><c>C </c><c>   1</c></rc>
    <rc><c>C </c><c>   1</c></rc>
    <rc><c>C </c><c>   1</c></rc>
    <rc><c>C </c><c>   1</c></rc>
   </set>
  </array>
  <array name="atomtypes" >
   <dimension dim="1">type</dimension>
   <field type="int">atomspertype</field>
   <field type="string">element</field>
   <field>mass</field>
   <field>valence</field>
   <field type="string">pseudopotential</field>
   <set>
    <rc><c>  18</c><c>C </c><c>     12.01100000</c><c>      4.00000000</c><c>  PAW_PBE C 08Apr2002                   </c></rc>
   </set>
  </array>
 </atominfo>
 <structure name="initialpos" >
  <crystal>
   <varray name="basis" >
    <v>       7.40170591       0.00000000       0.00000000 </v>
    <v>      -3.70085295       6.41006527       0.00000000 </v>
    <v>       0.00000000       0.00000000      20.00000000 </v>
   </varray>
   <i name="volume">    948.90835877 </i>
   <varray name="rec_basis" >
    <v>       0.13510399       0.07800233       0.00000000 </v>
    <v>       0.00000000       0.15600465       0.00000000 </v>
    <v>       0.00000000       0.00000000       0.05000000 </v>
   </varray>
  </crystal>
  <varray name="positions" >
   <v>       0.00000000       0.00000000       0.49950000 </v>
   <v>       0.33333333       0.00000000       0.50000000 </v>
   <v>       0.66666667       0.00000000       0.50000000 </v>
   <v>       0.00000000       0.33333333       0.50000000 </v>
   <v>       0.33333333       0.33333333       0.50000000 </v>
   <v>       0.66666667       0.33333333       0.50000000 </v>
   <v>       0.00000000       0.66666667       0.50000000 </v>
   <v>       0.33333333       0.66666667       0.50000000 </v>
   <v>       0.66666667       0.66666667       0.50000000 </v>
   <v>       0.22144220       0.10955106       0.50000000 </v>
   <v>       0.55555556       0.11111111       0.50000000 </v>
   <v>       0.88888889       0.11111111       0.50000000 </v>
   <v>       0.22222222       0.44444444       0.50000000 </v>
   <v>       0.55555556       0.44444444       0.50000000 </v>
   <v>       0.88888889       0.44444444       0.50000000 </v>
   <v>       0.22222222       0.77777778       0.50000000 </v>
   <v>       0.55555556       0.77777778       0.50000000 </v>
   <v>       0.88888889       0.77777778       0.50000000 </v>
  </varray>
 </structure>
 <calculation>
  <scstep>
   <time name="dav">    5.94    6.17</time>
   <time name="total">    6.03    6.26</time>
   <energy>
    <i name="alphaZ">     28.04858418 </i>
    <i name="ewald">  11638.84045440 </i>
    <i name="hartreedc"> -13553.15827743 </i>
    <i name="XCdc">    237.17731673 </i>
    <i name="pawpsdc">   1953.39683484 </i>
    <i name="pawaedc">  -1963.64613940 </i>
    <i name="eentropy">     -0.00816362 </i>
    <i name="bandstr">   -257.77325903 </i>
    <i name="atom">   2648.70517965 </i>
    <i name="e_fr_energy">    731.58253032 </i>
    <i name="e_wo_entrp">    731.59069394 </i>
    <i name="e_0_energy">    731.58661213 </i>
   </energy>
  </scstep>
  <scstep>
   <time name="dav">    7.94    8.24</time>
   <time name="total">    7.94    8.25</time>
   <energy>
    <i name="e_fr_energy">    -23.94703888 </i>
    <i name="e_wo_entrp">    -23.94683608 </i>
    <i name="e_0_energy">    -23.94693748 </i>
   </energy>
  </scstep>
  <scstep>
   <time name="dav">    6.40    5.46</time>
   <time name="total">    6.40    5.46</time>
   <energy>
    <i name="e_fr_energy">   -172.28637149 </i>
    <i name="e_wo_entrp">   -172.28494123 </i>
    <i name="e_0_energy">   -172.28565636 </i>
   </energy>
  </scstep>
  <scstep>
   <time name="dav">    6.31    6.55</time>
   <time name="total">    6.31    6.55</time>
   <energy>
    <i name="e_fr_energy">   -177.34719828 </i>
    <i name="e_wo_entrp">   -177.34502283 </i>
    <i name="e_0_energy">   -177.34611056 </i>
   </energy>
  </scstep>
  <scstep>
   <time name="dav">    7.10    7.37</time>
   <time name="total">    7.36    7.64</time>
   <energy>
    <i name="e_fr_energy">   -177.48513513 </i>
    <i name="e_wo_entrp">   -177.48297717 </i>
    <i name="e_0_energy">   -177.48405615 </i>
   </energy>
  </scstep>
  <scstep>
   <time name="dav">    6.00    6.23</time>
   <time name="total">    6.35    6.59</time>
   <energy>
    <i name="e_fr_energy">   -169.31825857 </i>
    <i name="e_wo_entrp">   -169.31606499 </i>
    <i name="e_0_energy">   -169.31716178 </i>
   </energy>
  </scstep>
  <scstep>
   <time name="dav">    5.92    6.14</time>
   <time name="total">    6.27    6.51</time>
   <energy>
    <i name="e_fr_energy">   -166.15053984 </i>
    <i name="e_wo_entrp">   -166.14833106 </i>
    <i name="e_0_energy">   -166.14943545 </i>
   </energy>
  </scstep>
  <scstep>
   <time name="dav">    6.21    5.24</time>
   <time name="total">    6.56    5.60</time>
   <energy>
    <i name="e_fr_energy">   -166.08751167 </i>
    <i name="e_wo_entrp">   -166.08530896 </i>
    <i name="e_0_energy">   -166.08641032 </i>
   </energy>
  </scstep>
  <scstep>
   <time name="dav">    6.58    6.83</time>
   <time name="total">    6.93    7.19</time>
   <energy>
    <i name="e_fr_energy">   -166.07490037 </i>
    <i name="e_wo_entrp">   -166.07269577 </i>
    <i name="e_0_energy">   -166.07379807 </i>
   </energy>
  </scstep>
  <scstep>
   <time name="dav">    5.79    6.01</time>
   <time name="total">    6.14    6.37</time>
   <energy>
    <i name="e_fr_energy">   -166.05627774 </i>
    <i name="e_wo_entrp">   -166.05407194 </i>
    <i name="e_0_energy">   -166.05517484 </i>
   </energy>
  </scstep>
  <scstep>
   <time name="dav">    5.87    6.10</time>
   <time name="total">    6.23    6.47</time>
   <energy>
    <i name="e_fr_energy">   -166.05995688 </i>
    <i name="e_wo_entrp">   -166.05775209 </i>
    <i name="e_0_energy">   -166.05885449 </i>
   </energy>
  </scstep>
  <scstep>
   <time name="dav">    5.69    5.90</time>
   <time name="total">    6.03    6.26</time>
   <energy>
    <i name="e_fr_energy">   -166.06472364 </i>
    <i name="e_wo_entrp">   -166.06251892 </i>
    <i name="e_0_energy">   -166.06362128 </i>
   </energy>
  </scstep>
  <scstep>
   <time name="dav">    6.06    5.10</time>
   <time name="total">    6.42    5.47</time>
   <energy>
    <i name="e_fr_energy">   -166.06881324 </i>
    <i name="e_wo_entrp">   -166.06660809 </i>
    <i name="e_0_energy">   -166.06771067 </i>
   </energy>
  </scstep>
  <scstep>
   <time name="dav">    5.67    5.88</time>
   <time name="total">    6.02    6.25</time>
   <energy>
    <i name="e_fr_energy">   -166.07264937 </i>
    <i name="e_wo_entrp">   -166.07044419 </i>
    <i name="e_0_energy">   -166.07154678 </i>
   </energy>
  </scstep>
  <scstep>
   <time name="dav">    5.93    6.16</time>
   <time name="total">    6.28    6.53</time>
   <energy>
    <i name="e_fr_energy">   -166.07375897 </i>
    <i name="e_wo_entrp">   -166.07155384 </i>
    <i name="e_0_energy">   -166.07265640 </i>
   </energy>
  </scstep>
  <scstep>
   <time name="dav">    6.07    6.33</time>
   <time name="total">    6.43    6.70</time>
   <energy>
    <i name="e_fr_energy">   -166.07393614 </i>
    <i name="e_wo_entrp">   -166.07173103 </i>
    <i name="e_0_energy">   -166.07283359 </i>
   </energy>
  </scstep>
  <scstep>
   <time name="dav">    5.64    5.86</time>
   <time name="total">    5.99    6.21</time>
   <energy>
    <i name="e_fr_energy">   -166.07413236 </i>
    <i name="e_wo_entrp">   -166.07192731 </i>
    <i name="e_0_energy">   -166.07302983 </i>
   </energy>
  </scstep>
  <scstep>
   <time name="dav">    5.14    4.11</time>
   <time name="total">    5.49    4.47</time>
   <energy>
    <i name="e_fr_energy">   -166.07417365 </i>
    <i name="e_wo_entrp">   -166.07196856 </i>
    <i name="e_0_energy">   -166.07307110 </i>
   </energy>
  </scstep>
  <scstep>
   <time name="dav">    5.12    5.31</time>
   <time name="total">    5.47    5.68</time>
   <energy>
    <i name="e_fr_energy">   -166.07421323 </i>
    <i name="e_wo_entrp">   -166.07200811 </i>
    <i name="e_0_energy">   -166.07311067 </i>
   </energy>
  </scstep>
  <scstep>
   <time name="dav">    4.30    4.46</time>
   <time name="total">    4.64    4.82</time>
   <energy>
    <i name="e_fr_energy">   -166.07423276 </i>
    <i name="e_wo_entrp">   -166.07202767 </i>
    <i name="e_0_energy">   -166.07313022 </i>
   </energy>
  </scstep>
  <scstep>
   <time name="dav">    3.94    4.09</time>
   <time name="total">    4.30    4.46</time>
   <energy>
    <i name="e_fr_energy">   -166.07424191 </i>
    <i name="e_wo_entrp">   -166.07203681 </i>
    <i name="e_0_energy">   -166.07313936 </i>
   </energy>
  </scstep>
  <scstep>
   <time name="dav">    3.98    4.13</time>
   <time name="total">    4.33    4.50</time>
   <energy>
    <i name="e_fr_energy">   -166.07424403 </i>
    <i name="e_wo_entrp">   -166.07203893 </i>
    <i name="e_0_energy">   -166.07314148 </i>
   </energy>
  </scstep>
  <scstep>
   <time name="dav">    4.10    4.26</time>
   <time name="total">    4.18    4.34</time>
   <energy>
    <i name="alphaZ">     28.04858418 </i>
    <i name="ewald">  11638.84045440 </i>
    <i name="hartreedc"> -13861.49350751 </i>
    <i name="XCdc">    247.81377767 </i>
    <i name="pawpsdc">   7452.80620802 </i>
    <i name="pawaedc">  -7465.06954305 </i>
    <i name="eentropy">     -0.00220509 </i>
    <i name="bandstr">   -855.72319255 </i>
    <i name="atom">   2648.70517965 </i>
    <i name="e_fr_energy">   -166.07424428 </i>
    <i name="e_wo_entrp">   -166.07203919 </i>
    <i name="e_0_energy">   -166.07314174 </i>
   </energy>
  </scstep>
  <structure>
   <crystal>
    <varray name="basis" >
     <v>       7.40170591       0.00000000       0.00000000 </v>
     <v>      -3.70085295       6.41006527       0.00000000 </v>
     <v>       0.00000000       0.00000000      20.00000000 </v>
    </varray>
    <i name="volume">    948.90835877 </i>
    <varray name="rec_basis" >
     <v>       0.13510399       0.07800233       0.00000000 </v>
     <v>       0.00000000       0.15600465       0.00000000 </v>
     <v>       0.00000000       0.00000000       0.05000000 </v>
    </varray>
   </crystal>
   <varray name="positions" >
    <v>       0.00000000       0.00000000       0.49950000 </v>
    <v>       0.33333333       0.00000000       0.50000000 </v>
    <v>       0.66666667       0.00000000       0.50000000 </v>
    <v>       0.00000000       0.33333333       0.50000000 </v>
    <v>       0.33333333       0.33333333       0.50000000 </v>
    <v>       0.66666667       0.33333333       0.50000000 </v>
    <v>       0.00000000       0.66666667       0.50000000 </v>
    <v>       0.33333333       0.66666667       0.50000000 </v>
    <v>       0.66666667       0.66666667       0.50000000 </v>
    <v>       0.22144220       0.10955106       0.50000000 </v>
    <v>       0.55555556       0.11111111       0.50000000 </v>
    <v>       0.88888889       0.11111111       0.50000000 </v>
    <v>       0.22222222       0.44444444       0.50000000 </v>
    <v>       0.55555556       0.44444444       0.50000000 </v>
    <v>       0.88888889       0.44444444       0.50000000 </v>
    <v>       0.22222222       0.77777778       0.50000000 </v>
    <v>       0.55555556       0.77777778       0.50000000 </v>
    <v>       0.88888889       0.77777778       0.50000000 </v>
   </varray>
  </structure>
  <varray name="forces" >
   <v>      -0.05663812      -0.14001433       0.14329125 </v>
   <v>       0.05667550      -0.13999734       0.00479886 </v>
   <v>      -0.00001473       0.02479137       0.00472853 </v>
   <v>      -0.02294737      -0.00839975       0.00479863 </v>
   <v>       0.00003001      -0.22542158       0.00477980 </v>
   <v>       0.02290689      -0.00839423      -0.00218313 </v>
   <v>      -0.00002464       0.03119487       0.00481130 </v>
   <v>       0.01039275       0.00678623      -0.00218648 </v>
   <v>      -0.01037733       0.00675982       0.00480797 </v>
   <v>      -0.00059116       0.59170811      -0.06103162 </v>
   <v>       0.01334352       0.02411445       0.00914001 </v>
   <v>      -0.01277668       0.02377542      -0.06160352 </v>
   <v>       0.04538183      -0.03137651      -0.00332514 </v>
   <v>      -0.04536375      -0.03139909       0.00892151 </v>
   <v>      -0.00000841      -0.03046188       0.00908010 </v>
   <v>       0.01893993      -0.03192397      -0.00349738 </v>
   <v>      -0.00001204      -0.03047818      -0.00343676 </v>
   <v>      -0.01891621      -0.03126340      -0.06189392 </v>
  </varray>
  <varray name="stress" >
   <v>      -0.09227132       0.00000277       0.00095696 </v>
   <v>       0.00000279      -0.21697905       0.00236878 </v>
   <v>       0.00095696       0.00236879      -0.56887880 </v>
  </varray>
  <energy>
   <i name="e_fr_energy">   -166.07424428 </i>
   <i name="e_wo_entrp">   -166.07203919 </i>
   <i name="e_0_energy">   -166.07314174 </i>
  </energy>
  <time name="totalsc">  143.24  142.75</time>
  <eigenvalues>
   <array>
    <dimension dim="1">band</dimension>
    <dimension dim="2">kpoint</dimension>
    <dimension dim="3">spin</dimension>
    <field>eigene</field>
    <field>occ</field>
    <set>
     <set comment="spin 1">
      <set comment="kpoint 1">
       <r>  -22.2559    1.0000 </r>
       <r>  -19.6923    1.0000 </r>
       <r>  -19.6776    1.0000 </r>
       <r>  -19.6748    1.0000 </r>
       <r>  -19.6724    1.0000 </r>
       <r>  -19.6719    1.0000 </r>
       <r>  -19.6511    1.0000 </r>
       <r>  -15.3502    1.0000 </r>
       <r>  -15.3482    1.0000 </r>
       <r>  -15.3407    1.0000 </r>
       <r>  -15.3239    1.0000 </r>
       <r>  -13.2921    1.0000 </r>
       <r>  -13.2872    1.0000 </r>
       <r>  -12.3946    1.0000 </r>
       <r>  -12.3856    1.0000 </r>
       <r>  -12.3755    1.0000 </r>
       <r>  -12.3736    1.0000 </r>
       <r>  -12.3685    1.0000 </r>
       <r>  -12.3499    1.0000 </r>
       <r>  -10.3599    1.0000 </r>
       <r>   -8.5508    1.0000 </r>
       <r>   -8.5269    1.0000 </r>
       <r>   -8.5240    1.0000 </r>
       <r>   -8.5235    1.0000 </r>
       <r>   -8.5195    1.0000 </r>
       <r>   -8.4964    1.0000 </r>
       <r>   -7.3873    1.0000 </r>
       <r>   -7.3732    1.0000 </r>
       <r>   -7.3721    1.0000 </r>
       <r>   -7.3704    1.0000 </r>
       <r>   -7.3700    1.0000 </r>
       <r>   -7.3521    1.0000 </r>
       <r>   -5.8008    1.0000 </r>
       <r>   -5.7678    1.0000 </r>
       <r>   -2.7687    0.6475 </r>
       <r>   -2.7579    0.5286 </r>
       <r>   -2.7553    0.4992 </r>
       <r>   -2.7393    0.3248 </r>
       <r>    0.5196    0.0000 </r>
       <r>    1.3122    0.0000 </r>
       <r>    1.6364    0.0000 </r>
       <r>    2.1231    0.0000 </r>
       <r>    2.1395    0.0000 </r>
       <r>    2.1436    0.0000 </r>
       <r>    2.1453    0.0000 </r>
       <r>    2.1465    0.0000 </r>
      </set>
      <set comment="kpoint 2">
       <r>  -22.2023    1.0000 </r>
       <r>  -20.3492    1.0000 </r>
       <r>  -19.9909    1.0000 </r>
       <r>  -19.9774    1.0000 </r>
       <r>  -19.2693    1.0000 </r>
       <r>  -19.2555    1.0000 </r>
       <r>  -18.9061    1.0000 </r>
       <r>  -16.0023    1.0000 </r>
       <r>  -15.9888    1.0000 </r>
       <r>  -14.9193    1.0000 </r>
       <r>  -14.9063    1.0000 </r>
       <r>  -13.6005    1.0000 </r>
       <r>  -12.9755    1.0000 </r>
       <r>  -12.9655    1.0000 </r>
       <r>  -12.9611    1.0000 </r>
       <r>  -12.9487    1.0000 </r>
       <r>  -11.7397    1.0000 </r>
       <r>  -11.7267    1.0000 </r>
       <r>  -11.1209    1.0000 </r>
       <r>  -10.2959    1.0000 </r>
       <r>   -8.8741    1.0000 </r>
       <r>   -8.8591    1.0000 </r>
       <r>   -8.8232    1.0000 </r>
       <r>   -8.5190    1.0000 </r>
       <r>   -8.5048    1.0000 </r>
       <r>   -8.1268    1.0000 </r>
       <r>   -8.1264    1.0000 </r>
       <r>   -7.7198    1.0000 </r>
       <r>   -7.7080    1.0000 </r>
       <r>   -6.9290    1.0000 </r>
       <r>   -6.9174    1.0000 </r>
       <r>   -6.5554    1.0000 </r>
       <r>   -6.0140    1.0000 </r>
       <r>   -5.8904    1.0000 </r>
       <r>   -3.5329    1.0000 </r>
       <r>   -3.5207    1.0000 </r>
       <r>   -2.0114    0.0000 </r>
       <r>   -1.9975    0.0000 </r>
       <r>    0.5921    0.0000 </r>
       <r>    0.8710    0.0000 </r>
       <r>    1.3858    0.0000 </r>
       <r>    1.4663    0.0000 </r>
       <r>    1.4837    0.0000 </r>
       <r>    1.7109    0.0000 </r>
       <r>    2.6299    0.0000 </r>
       <r>    2.7542    0.0000 </r>
      </set>
      <set comment="kpoint 3">
       <r>  -22.2023    1.0000 </r>
       <r>  -20.3488    1.0000 </r>
       <r>  -19.9855    1.0000 </r>
       <r>  -19.9835    1.0000 </r>
       <r>  -19.2640    1.0000 </r>
       <r>  -19.2610    1.0000 </r>
       <r>  -18.9058    1.0000 </r>
       <r>  -15.9989    1.0000 </r>
       <r>  -15.9909    1.0000 </r>
       <r>  -14.9183    1.0000 </r>
       <r>  -14.9099    1.0000 </r>
       <r>  -13.5922    1.0000 </r>
       <r>  -12.9784    1.0000 </r>
       <r>  -12.9742    1.0000 </r>
       <r>  -12.9526    1.0000 </r>
       <r>  -12.9518    1.0000 </r>
       <r>  -11.7432    1.0000 </r>
       <r>  -11.7346    1.0000 </r>
       <r>  -11.1105    1.0000 </r>
       <r>  -10.2959    1.0000 </r>
       <r>   -8.8675    1.0000 </r>
       <r>   -8.8535    1.0000 </r>
       <r>   -8.8365    1.0000 </r>
       <r>   -8.5122    1.0000 </r>
       <r>   -8.4960    1.0000 </r>
       <r>   -8.1408    1.0000 </r>
       <r>   -8.1282    1.0000 </r>
       <r>   -7.7141    1.0000 </r>
       <r>   -7.7107    1.0000 </r>
       <r>   -6.9236    1.0000 </r>
       <r>   -6.9200    1.0000 </r>
       <r>   -6.5601    1.0000 </r>
       <r>   -5.9887    1.0000 </r>
       <r>   -5.9159    1.0000 </r>
       <r>   -3.5279    1.0000 </r>
       <r>   -3.5249    1.0000 </r>
       <r>   -2.0060    0.0000 </r>
       <r>   -2.0039    0.0000 </r>
       <r>    0.5921    0.0000 </r>
       <r>    0.8826    0.0000 </r>
       <r>    1.3858    0.0000 </r>
       <r>    1.4702    0.0000 </r>
       <r>    1.4722    0.0000 </r>
       <r>    1.7109    0.0000 </r>
       <r>    2.6299    0.0000 </r>
       <r>    2.7576    0.0000 </r>
      </set>
      <set comment="kpoint 4">
       <r>  -22.2023    1.0000 </r>
       <r>  -20.3492    1.0000 </r>
       <r>  -19.9909    1.0000 </r>
       <r>  -19.9774    1.0000 </r>
       <r>  -19.2693    1.0000 </r>
       <r>  -19.2556    1.0000 </r>
       <r>  -18.9061    1.0000 </r>
       <r>  -16.0023    1.0000 </r>
       <r>  -15.9888    1.0000 </r>
       <r>  -14.9193    1.0000 </r>
       <r>  -14.9063    1.0000 </r>
       <r>  -13.6005    1.0000 </r>
       <r>  -12.9755    1.0000 </r>
       <r>  -12.9655    1.0000 </r>
       <r>  -12.9610    1.0000 </r>
       <r>  -12.9487    1.0000 </r>
       <r>  -11.7397    1.0000 </r>
       <r>  -11.7268    1.0000 </r>
       <r>  -11.1209    1.0000 </r>
       <r>  -10.2959    1.0000 </r>
       <r>   -8.8741    1.0000 </r>
       <r>   -8.8591    1.0000 </r>
       <r>   -8.8232    1.0000 </r>
       <r>   -8.5190    1.0000 </r>
       <r>   -8.5048    1.0000 </r>
       <r>   -8.1267    1.0000 </r>
       <r>   -8.1264    1.0000 </r>
       <r>   -7.7198    1.0000 </r>
       <r>   -7.7080    1.0000 </r>
       <r>   -6.9290    1.0000 </r>
       <r>   -6.9174    1.0000 </r>
       <r>   -6.5554    1.0000 </r>
       <r>   -6.0140    1.0000 </r>
       <r>   -5.8904    1.0000 </r>
       <r>   -3.5329    1.0000 </r>
       <r>   -3.5207    1.0000 </r>
       <r>   -2.0114    0.0000 </r>
       <r>   -1.9975    0.0000 </r>
       <r>    0.5921    0.0000 </r>
       <r>    0.8710    0.0000 </r>
       <r>    1.3858    0.0000 </r>
       <r>    1.4664    0.0000 </r>
       <r>    1.4836    0.0000 </r>
       <r>    1.7109    0.0000 </r>
       <r>    2.6299    0.0000 </r>
       <r>    2.7544    0.0000 </r>
      </set>
      <set comment="kpoint 5">
       <r>  -22.0418    1.0000 </r>
       <r>  -20.9267    1.0000 </r>
       <r>  -20.1993    1.0000 </r>
       <r>  -20.1858    1.0000 </r>
       <r>  -18.7622    1.0000 </r>
       <r>  -18.7484    1.0000 </r>
       <r>  -18.0628    1.0000 </r>
       <r>  -16.7523    1.0000 </r>
       <r>  -16.7384    1.0000 </r>
       <r>  -14.7562    1.0000 </r>
       <r>  -14.6297    1.0000 </r>
       <r>  -14.6173    1.0000 </r>
       <r>  -13.5039    1.0000 </r>
       <r>  -13.4925    1.0000 </r>
       <r>  -12.1914    1.0000 </r>
       <r>  -12.1775    1.0000 </r>
       <r>  -11.1018    1.0000 </r>
       <r>  -11.0886    1.0000 </r>
       <r>  -10.1046    1.0000 </r>
       <r>   -9.8643    1.0000 </r>
       <r>   -9.5043    1.0000 </r>
       <r>   -9.4891    1.0000 </r>
       <r>   -9.0343    1.0000 </r>
       <r>   -8.7924    1.0000 </r>
       <r>   -8.7700    1.0000 </r>
       <r>   -8.7576    1.0000 </r>
       <r>   -7.9512    1.0000 </r>
       <r>   -7.9393    1.0000 </r>
       <r>   -7.6659    1.0000 </r>
       <r>   -6.6297    1.0000 </r>
       <r>   -6.3838    1.0000 </r>
       <r>   -6.3723    1.0000 </r>
       <r>   -6.2087    1.0000 </r>
       <r>   -5.7623    1.0000 </r>
       <r>   -4.3051    1.0000 </r>
       <r>   -4.2933    1.0000 </r>
       <r>   -1.2899    0.0000 </r>
       <r>   -1.2750    0.0000 </r>
       <r>   -0.2429    0.0000 </r>
       <r>    0.7794    0.0000 </r>
       <r>    0.7958    0.0000 </r>
       <r>    0.8126    0.0000 </r>
       <r>    1.6065    0.0000 </r>
       <r>    1.9343    0.0000 </r>
       <r>    2.3341    0.0000 </r>
       <r>    2.8512    0.0000 </r>
      </set>
      <set comment="kpoint 6">
       <r>  -22.0418    1.0000 </r>
       <r>  -20.9264    1.0000 </r>
       <r>  -20.1940    1.0000 </r>
       <r>  -20.1919    1.0000 </r>
       <r>  -18.7570    1.0000 </r>
       <r>  -18.7536    1.0000 </r>
       <r>  -18.0631    1.0000 </r>
       <r>  -16.7479    1.0000 </r>
       <r>  -16.7415    1.0000 </r>
       <r>  -14.7483    1.0000 </r>
       <r>  -14.6295    1.0000 </r>
       <r>  -14.6217    1.0000 </r>
       <r>  -13.5050    1.0000 </r>
       <r>  -13.4983    1.0000 </r>
       <r>  -12.1834    1.0000 </r>
       <r>  -12.1817    1.0000 </r>
       <r>  -11.1084    1.0000 </r>
       <r>  -11.0988    1.0000 </r>
       <r>  -10.1048    1.0000 </r>
       <r>   -9.8520    1.0000 </r>
       <r>   -9.4976    1.0000 </r>
       <r>   -9.4865    1.0000 </r>
       <r>   -9.0459    1.0000 </r>
       <r>   -8.7932    1.0000 </r>
       <r>   -8.7610    1.0000 </r>
       <r>   -8.7465    1.0000 </r>
       <r>   -7.9454    1.0000 </r>
       <r>   -7.9421    1.0000 </r>
       <r>   -7.6815    1.0000 </r>
       <r>   -6.6082    1.0000 </r>
       <r>   -6.3784    1.0000 </r>
       <r>   -6.3751    1.0000 </r>
       <r>   -6.2311    1.0000 </r>
       <r>   -5.7699    1.0000 </r>
       <r>   -4.3001    1.0000 </r>
       <r>   -4.2967    1.0000 </r>
       <r>   -1.2841    0.0000 </r>
       <r>   -1.2830    0.0000 </r>
       <r>   -0.2281    0.0000 </r>
       <r>    0.7839    0.0000 </r>
       <r>    0.7857    0.0000 </r>
       <r>    0.8121    0.0000 </r>
       <r>    1.6065    0.0000 </r>
       <r>    1.9343    0.0000 </r>
       <r>    2.3341    0.0000 </r>
       <r>    2.8512    0.0000 </r>
      </set>
      <set comment="kpoint 7">
       <r>  -22.0418    1.0000 </r>
       <r>  -20.9267    1.0000 </r>
       <r>  -20.1993    1.0000 </r>
       <r>  -20.1859    1.0000 </r>
       <r>  -18.7622    1.0000 </r>
       <r>  -18.7485    1.0000 </r>
       <r>  -18.0628    1.0000 </r>
       <r>  -16.7523    1.0000 </r>
       <r>  -16.7384    1.0000 </r>
       <r>  -14.7562    1.0000 </r>
       <r>  -14.6297    1.0000 </r>
       <r>  -14.6173    1.0000 </r>
       <r>  -13.5039    1.0000 </r>
       <r>  -13.4925    1.0000 </r>
       <r>  -12.1914    1.0000 </r>
       <r>  -12.1775    1.0000 </r>
       <r>  -11.1018    1.0000 </r>
       <r>  -11.0887    1.0000 </r>
       <r>  -10.1046    1.0000 </r>
       <r>   -9.8643    1.0000 </r>
       <r>   -9.5043    1.0000 </r>
       <r>   -9.4891    1.0000 </r>
       <r>   -9.0343    1.0000 </r>
       <r>   -8.7922    1.0000 </r>
       <r>   -8.7706    1.0000 </r>
       <r>   -8.7573    1.0000 </r>
       <r>   -7.9511    1.0000 </r>
       <r>   -7.9394    1.0000 </r>
       <r>   -7.6659    1.0000 </r>
       <r>   -6.6297    1.0000 </r>
       <r>   -6.3837    1.0000 </r>
       <r>   -6.3724    1.0000 </r>
       <r>   -6.2087    1.0000 </r>
       <r>   -5.7623    1.0000 </r>
       <r>   -4.3051    1.0000 </r>
       <r>   -4.2933    1.0000 </r>
       <r>   -1.2899    0.0000 </r>
       <r>   -1.2750    0.0000 </r>
       <r>   -0.2429    0.0000 </r>
       <r>    0.7799    0.0000 </r>
       <r>    0.7949    0.0000 </r>
       <r>    0.8130    0.0000 </r>
       <r>    1.6065    0.0000 </r>
       <r>    1.9344    0.0000 </r>
       <r>    2.3341    0.0000 </r>
       <r>    2.8512    0.0000 </r>
      </set>
      <set comment="kpoint 8">
       <r>  -21.7750    1.0000 </r>
       <r>  -21.4028    1.0000 </r>
       <r>  -20.3039    1.0000 </r>
       <r>  -20.2904    1.0000 </r>
       <r>  -18.1652    1.0000 </r>
       <r>  -18.1514    1.0000 </r>
       <r>  -17.4884    1.0000 </r>
       <r>  -17.4746    1.0000 </r>
       <r>  -17.2275    1.0000 </r>
       <r>  -15.7493    1.0000 </r>
       <r>  -14.3269    1.0000 </r>
       <r>  -14.3157    1.0000 </r>
       <r>  -13.9556    1.0000 </r>
       <r>  -13.9442    1.0000 </r>
       <r>  -11.2671    1.0000 </r>
       <r>  -11.2522    1.0000 </r>
       <r>  -10.5989    1.0000 </r>
       <r>  -10.5871    1.0000 </r>
       <r>  -10.3365    1.0000 </r>
       <r>  -10.3211    1.0000 </r>
       <r>   -9.7876    1.0000 </r>
       <r>   -9.3481    1.0000 </r>
       <r>   -9.1418    1.0000 </r>
       <r>   -9.0987    1.0000 </r>
       <r>   -9.0904    1.0000 </r>
       <r>   -8.6509    1.0000 </r>
       <r>   -8.0676    1.0000 </r>
       <r>   -8.0557    1.0000 </r>
       <r>   -7.5445    1.0000 </r>
       <r>   -7.1626    1.0000 </r>
       <r>   -6.6574    1.0000 </r>
       <r>   -5.7532    1.0000 </r>
       <r>   -5.7417    1.0000 </r>
       <r>   -5.1946    1.0000 </r>
       <r>   -5.0533    1.0000 </r>
       <r>   -5.0415    1.0000 </r>
       <r>   -0.9763    0.0000 </r>
       <r>   -0.5921    0.0000 </r>
       <r>   -0.5764    0.0000 </r>
       <r>    0.0944    0.0000 </r>
       <r>    0.1110    0.0000 </r>
       <r>    1.1736    0.0000 </r>
       <r>    1.6817    0.0000 </r>
       <r>    1.9739    0.0000 </r>
       <r>    2.3067    0.0000 </r>
       <r>    2.4869    0.0000 </r>
      </set>
      <set comment="kpoint 9">
       <r>  -21.7750    1.0000 </r>
       <r>  -21.4025    1.0000 </r>
       <r>  -20.2985    1.0000 </r>
       <r>  -20.2966    1.0000 </r>
       <r>  -18.1601    1.0000 </r>
       <r>  -18.1563    1.0000 </r>
       <r>  -17.4836    1.0000 </r>
       <r>  -17.4786    1.0000 </r>
       <r>  -17.2308    1.0000 </r>
       <r>  -15.7384    1.0000 </r>
       <r>  -14.3273    1.0000 </r>
       <r>  -14.3208    1.0000 </r>
       <r>  -13.9561    1.0000 </r>
       <r>  -13.9496    1.0000 </r>
       <r>  -11.2593    1.0000 </r>
       <r>  -11.2543    1.0000 </r>
       <r>  -10.6117    1.0000 </r>
       <r>  -10.6008    1.0000 </r>
       <r>  -10.3292    1.0000 </r>
       <r>  -10.3214    1.0000 </r>
       <r>   -9.7880    1.0000 </r>
       <r>   -9.3487    1.0000 </r>
       <r>   -9.1517    1.0000 </r>
       <r>   -9.0866    1.0000 </r>
       <r>   -9.0738    1.0000 </r>
       <r>   -8.6357    1.0000 </r>
       <r>   -8.0618    1.0000 </r>
       <r>   -8.0584    1.0000 </r>
       <r>   -7.5260    1.0000 </r>
       <r>   -7.1806    1.0000 </r>
       <r>   -6.6769    1.0000 </r>
       <r>   -5.7479    1.0000 </r>
       <r>   -5.7447    1.0000 </r>
       <r>   -5.2056    1.0000 </r>
       <r>   -5.0483    1.0000 </r>
       <r>   -5.0442    1.0000 </r>
       <r>   -0.9583    0.0000 </r>
       <r>   -0.5862    0.0000 </r>
       <r>   -0.5856    0.0000 </r>
       <r>    0.1003    0.0000 </r>
       <r>    0.1005    0.0000 </r>
       <r>    1.1735    0.0000 </r>
       <r>    1.6817    0.0000 </r>
       <r>    1.9739    0.0000 </r>
       <r>    2.3067    0.0000 </r>
       <r>    2.4868    0.0000 </r>
      </set>
      <set comment="kpoint 10">
       <r>  -21.7750    1.0000 </r>
       <r>  -21.4028    1.0000 </r>
       <r>  -20.3039    1.0000 </r>
       <r>  -20.2904    1.0000 </r>
       <r>  -18.1652    1.0000 </r>
       <r>  -18.1514    1.0000 </r>
       <r>  -17.4884    1.0000 </r>
       <r>  -17.4746    1.0000 </r>
       <r>  -17.2275    1.0000 </r>
       <r>  -15.7493    1.0000 </r>
       <r>  -14.3269    1.0000 </r>
       <r>  -14.3157    1.0000 </r>
       <r>  -13.9556    1.0000 </r>
       <r>  -13.9442    1.0000 </r>
       <r>  -11.2671    1.0000 </r>
       <r>  -11.2522    1.0000 </r>
       <r>  -10.5989    1.0000 </r>
       <r>  -10.5871    1.0000 </r>
       <r>  -10.3365    1.0000 </r>
       <r>  -10.3211    1.0000 </r>
       <r>   -9.7876    1.0000 </r>
       <r>   -9.3481    1.0000 </r>
       <r>   -9.1418    1.0000 </r>
       <r>   -9.0988    1.0000 </r>
       <r>   -9.0903    1.0000 </r>
       <r>   -8.6509    1.0000 </r>
       <r>   -8.0676    1.0000 </r>
       <r>   -8.0557    1.0000 </r>
       <r>   -7.5445    1.0000 </r>
       <r>   -7.1626    1.0000 </r>
       <r>   -6.6574    1.0000 </r>
       <r>   -5.7532    1.0000 </r>
       <r>   -5.7417    1.0000 </r>
       <r>   -5.1946    1.0000 </r>
       <r>   -5.0533    1.0000 </r>
       <r>   -5.0415    1.0000 </r>
       <r>   -0.9763    0.0000 </r>
       <r>   -0.5921    0.0000 </r>
       <r>   -0.5764    0.0000 </r>
       <r>    0.0944    0.0000 </r>
       <r>    0.1110    0.0000 </r>
       <r>    1.1736    0.0000 </r>
       <r>    1.6817    0.0000 </r>
       <r>    1.9739    0.0000 </r>
       <r>    2.3068    0.0000 </r>
       <r>    2.4869    0.0000 </r>
      </set>
      <set comment="kpoint 11">
       <r>  -22.0953    1.0000 </r>
       <r>  -20.6143    1.0000 </r>
       <r>  -20.6077    1.0000 </r>
       <r>  -19.5239    1.0000 </r>
       <r>  -19.5151    1.0000 </r>
       <r>  -18.4583    1.0000 </r>
       <r>  -18.4514    1.0000 </r>
       <r>  -16.7789    1.0000 </r>
       <r>  -16.1594    1.0000 </r>
       <r>  -15.2453    1.0000 </r>
       <r>  -14.2528    1.0000 </r>
       <r>  -14.1634    1.0000 </r>
       <r>  -14.1499    1.0000 </r>
       <r>  -12.6080    1.0000 </r>
       <r>  -12.3140    1.0000 </r>
       <r>  -12.3082    1.0000 </r>
       <r>  -12.2663    1.0000 </r>
       <r>  -10.4939    1.0000 </r>
       <r>  -10.4763    1.0000 </r>
       <r>  -10.1683    1.0000 </r>
       <r>   -9.1784    1.0000 </r>
       <r>   -9.1694    1.0000 </r>
       <r>   -9.1311    1.0000 </r>
       <r>   -9.1173    1.0000 </r>
       <r>   -8.4289    1.0000 </r>
       <r>   -8.4235    1.0000 </r>
       <r>   -8.0858    1.0000 </r>
       <r>   -8.0666    1.0000 </r>
       <r>   -7.1940    1.0000 </r>
       <r>   -7.1858    1.0000 </r>
       <r>   -6.4012    1.0000 </r>
       <r>   -6.1391    1.0000 </r>
       <r>   -6.1090    1.0000 </r>
       <r>   -6.1016    1.0000 </r>
       <r>   -4.2601    1.0000 </r>
       <r>   -3.8956    1.0000 </r>
       <r>   -1.7156    0.0000 </r>
       <r>   -1.2617    0.0000 </r>
       <r>    0.2685    0.0000 </r>
       <r>    0.2824    0.0000 </r>
       <r>    0.7377    0.0000 </r>
       <r>    1.5330    0.0000 </r>
       <r>    1.8598    0.0000 </r>
       <r>    2.0030    0.0000 </r>
       <r>    2.0146    0.0000 </r>
       <r>    2.7774    0.0000 </r>
      </set>
      <set comment="kpoint 12">
       <r>  -22.0953    1.0000 </r>
       <r>  -20.6142    1.0000 </r>
       <r>  -20.6078    1.0000 </r>
       <r>  -19.5239    1.0000 </r>
       <r>  -19.5151    1.0000 </r>
       <r>  -18.4582    1.0000 </r>
       <r>  -18.4515    1.0000 </r>
       <r>  -16.7789    1.0000 </r>
       <r>  -16.1594    1.0000 </r>
       <r>  -15.2453    1.0000 </r>
       <r>  -14.2528    1.0000 </r>
       <r>  -14.1634    1.0000 </r>
       <r>  -14.1499    1.0000 </r>
       <r>  -12.6080    1.0000 </r>
       <r>  -12.3140    1.0000 </r>
       <r>  -12.3082    1.0000 </r>
       <r>  -12.2663    1.0000 </r>
       <r>  -10.4939    1.0000 </r>
       <r>  -10.4763    1.0000 </r>
       <r>  -10.1683    1.0000 </r>
       <r>   -9.1783    1.0000 </r>
       <r>   -9.1695    1.0000 </r>
       <r>   -9.1311    1.0000 </r>
       <r>   -9.1174    1.0000 </r>
       <r>   -8.4288    1.0000 </r>
       <r>   -8.4235    1.0000 </r>
       <r>   -8.0858    1.0000 </r>
       <r>   -8.0666    1.0000 </r>
       <r>   -7.1940    1.0000 </r>
       <r>   -7.1858    1.0000 </r>
       <r>   -6.4012    1.0000 </r>
       <r>   -6.1391    1.0000 </r>
       <r>   -6.1090    1.0000 </r>
       <r>   -6.1016    1.0000 </r>
       <r>   -4.2601    1.0000 </r>
       <r>   -3.8956    1.0000 </r>
       <r>   -1.7156    0.0000 </r>
       <r>   -1.2617    0.0000 </r>
       <r>    0.2686    0.0000 </r>
       <r>    0.2823    0.0000 </r>
       <r>    0.7377    0.0000 </r>
       <r>    1.5330    0.0000 </r>
       <r>    1.8598    0.0000 </r>
       <r>    2.0032    0.0000 </r>
       <r>    2.0144    0.0000 </r>
       <r>    2.7774    0.0000 </r>
      </set>
      <set comment="kpoint 13">
       <r>  -22.0953    1.0000 </r>
       <r>  -20.6176    1.0000 </r>
       <r>  -20.6045    1.0000 </r>
       <r>  -19.5280    1.0000 </r>
       <r>  -19.5103    1.0000 </r>
       <r>  -18.4618    1.0000 </r>
       <r>  -18.4482    1.0000 </r>
       <r>  -16.7783    1.0000 </r>
       <r>  -16.1664    1.0000 </r>
       <r>  -15.2305    1.0000 </r>
       <r>  -14.2614    1.0000 </r>
       <r>  -14.1713    1.0000 </r>
       <r>  -14.1514    1.0000 </r>
       <r>  -12.5986    1.0000 </r>
       <r>  -12.3074    1.0000 </r>
       <r>  -12.2952    1.0000 </r>
       <r>  -12.2760    1.0000 </r>
       <r>  -10.5014    1.0000 </r>
       <r>  -10.4769    1.0000 </r>
       <r>  -10.1682    1.0000 </r>
       <r>   -9.1971    1.0000 </r>
       <r>   -9.1733    1.0000 </r>
       <r>   -9.1261    1.0000 </r>
       <r>   -9.1119    1.0000 </r>
       <r>   -8.4309    1.0000 </r>
       <r>   -8.4207    1.0000 </r>
       <r>   -8.0822    1.0000 </r>
       <r>   -8.0598    1.0000 </r>
       <r>   -7.2007    1.0000 </r>
       <r>   -7.1845    1.0000 </r>
       <r>   -6.4236    1.0000 </r>
       <r>   -6.1167    1.0000 </r>
       <r>   -6.1062    1.0000 </r>
       <r>   -6.0970    1.0000 </r>
       <r>   -4.2533    1.0000 </r>
       <r>   -3.9069    1.0000 </r>
       <r>   -1.7002    0.0000 </r>
       <r>   -1.2722    0.0000 </r>
       <r>    0.2615    0.0000 </r>
       <r>    0.2744    0.0000 </r>
       <r>    0.7377    0.0000 </r>
       <r>    1.5330    0.0000 </r>
       <r>    1.8598    0.0000 </r>
       <r>    2.0069    0.0000 </r>
       <r>    2.0279    0.0000 </r>
       <r>    2.7775    0.0000 </r>
      </set>
      <set comment="kpoint 14">
       <r>  -21.8816    1.0000 </r>
       <r>  -21.1380    1.0000 </r>
       <r>  -20.7686    1.0000 </r>
       <r>  -19.6743    1.0000 </r>
       <r>  -18.9584    1.0000 </r>
       <r>  -17.9170    1.0000 </r>
       <r>  -17.5945    1.0000 </r>
       <r>  -17.5715    1.0000 </r>
       <r>  -16.6698    1.0000 </r>
       <r>  -15.2579    1.0000 </r>
       <r>  -15.2531    1.0000 </r>
       <r>  -14.6294    1.0000 </r>
       <r>  -13.7220    1.0000 </r>
       <r>  -12.8256    1.0000 </r>
       <r>  -11.9046    1.0000 </r>
       <r>  -11.6829    1.0000 </r>
       <r>  -11.3850    1.0000 </r>
       <r>  -10.0344    1.0000 </r>
       <r>   -9.9155    1.0000 </r>
       <r>   -9.9069    1.0000 </r>
       <r>   -9.7183    1.0000 </r>
       <r>   -9.6296    1.0000 </r>
       <r>   -9.2825    1.0000 </r>
       <r>   -9.2670    1.0000 </r>
       <r>   -9.0370    1.0000 </r>
       <r>   -8.6074    1.0000 </r>
       <r>   -8.2683    1.0000 </r>
       <r>   -7.5713    1.0000 </r>
       <r>   -7.3543    1.0000 </r>
       <r>   -7.1414    1.0000 </r>
       <r>   -6.5665    1.0000 </r>
       <r>   -6.5465    1.0000 </r>
       <r>   -5.5864    1.0000 </r>
       <r>   -5.3827    1.0000 </r>
       <r>   -5.0765    1.0000 </r>
       <r>   -4.4285    1.0000 </r>
       <r>   -1.3032    0.0000 </r>
       <r>   -0.6904    0.0000 </r>
       <r>   -0.4208    0.0000 </r>
       <r>   -0.2880    0.0000 </r>
       <r>    1.0282    0.0000 </r>
       <r>    1.2186    0.0000 </r>
       <r>    1.8271    0.0000 </r>
       <r>    2.0447    0.0000 </r>
       <r>    2.1578    0.0000 </r>
       <r>    2.4036    0.0000 </r>
      </set>
      <set comment="kpoint 15">
       <r>  -21.8816    1.0000 </r>
       <r>  -21.1377    1.0000 </r>
       <r>  -20.7689    1.0000 </r>
       <r>  -19.6747    1.0000 </r>
       <r>  -18.9580    1.0000 </r>
       <r>  -17.9166    1.0000 </r>
       <r>  -17.5962    1.0000 </r>
       <r>  -17.5709    1.0000 </r>
       <r>  -16.6698    1.0000 </r>
       <r>  -15.2566    1.0000 </r>
       <r>  -15.2448    1.0000 </r>
       <r>  -14.6374    1.0000 </r>
       <r>  -13.7263    1.0000 </r>
       <r>  -12.8225    1.0000 </r>
       <r>  -11.8998    1.0000 </r>
       <r>  -11.6891    1.0000 </r>
       <r>  -11.3860    1.0000 </r>
       <r>  -10.0381    1.0000 </r>
       <r>   -9.9253    1.0000 </r>
       <r>   -9.9135    1.0000 </r>
       <r>   -9.7079    1.0000 </r>
       <r>   -9.6224    1.0000 </r>
       <r>   -9.2899    1.0000 </r>
       <r>   -9.2549    1.0000 </r>
       <r>   -9.0380    1.0000 </r>
       <r>   -8.6060    1.0000 </r>
       <r>   -8.2498    1.0000 </r>
       <r>   -7.5896    1.0000 </r>
       <r>   -7.3527    1.0000 </r>
       <r>   -7.1314    1.0000 </r>
       <r>   -6.5692    1.0000 </r>
       <r>   -6.5565    1.0000 </r>
       <r>   -5.5798    1.0000 </r>
       <r>   -5.3918    1.0000 </r>
       <r>   -5.0749    1.0000 </r>
       <r>   -4.4301    1.0000 </r>
       <r>   -1.3008    0.0000 </r>
       <r>   -0.6746    0.0000 </r>
       <r>   -0.4231    0.0000 </r>
       <r>   -0.3014    0.0000 </r>
       <r>    1.0282    0.0000 </r>
       <r>    1.2242    0.0000 </r>
       <r>    1.8270    0.0000 </r>
       <r>    2.0446    0.0000 </r>
       <r>    2.1578    0.0000 </r>
       <r>    2.3973    0.0000 </r>
      </set>
      <set comment="kpoint 16">
       <r>  -21.8817    1.0000 </r>
       <r>  -21.1380    1.0000 </r>
       <r>  -20.7687    1.0000 </r>
       <r>  -19.6743    1.0000 </r>
       <r>  -18.9578    1.0000 </r>
       <r>  -17.9167    1.0000 </r>
       <r>  -17.5936    1.0000 </r>
       <r>  -17.5724    1.0000 </r>
       <r>  -16.6737    1.0000 </r>
       <r>  -15.2593    1.0000 </r>
       <r>  -15.2398    1.0000 </r>
       <r>  -14.6377    1.0000 </r>
       <r>  -13.7334    1.0000 </r>
       <r>  -12.8152    1.0000 </r>
       <r>  -11.8921    1.0000 </r>
       <r>  -11.6758    1.0000 </r>
       <r>  -11.3951    1.0000 </r>
       <r>  -10.0475    1.0000 </r>
       <r>   -9.9193    1.0000 </r>
       <r>   -9.9121    1.0000 </r>
       <r>   -9.7069    1.0000 </r>
       <r>   -9.6375    1.0000 </r>
       <r>   -9.2820    1.0000 </r>
       <r>   -9.2632    1.0000 </r>
       <r>   -9.0374    1.0000 </r>
       <r>   -8.6068    1.0000 </r>
       <r>   -8.2583    1.0000 </r>
       <r>   -7.5757    1.0000 </r>
       <r>   -7.3554    1.0000 </r>
       <r>   -7.1549    1.0000 </r>
       <r>   -6.5702    1.0000 </r>
       <r>   -6.5329    1.0000 </r>
       <r>   -5.5786    1.0000 </r>
       <r>   -5.3821    1.0000 </r>
       <r>   -5.0706    1.0000 </r>
       <r>   -4.4398    1.0000 </r>
       <r>   -1.2860    0.0000 </r>
       <r>   -0.6913    0.0000 </r>
       <r>   -0.4317    0.0000 </r>
       <r>   -0.3040    0.0000 </r>
       <r>    1.0282    0.0000 </r>
       <r>    1.2301    0.0000 </r>
       <r>    1.8271    0.0000 </r>
       <r>    2.0446    0.0000 </r>
       <r>    2.1578    0.0000 </r>
       <r>    2.4072    0.0000 </r>
      </set>
      <set comment="kpoint 17">
       <r>  -21.8816    1.0000 </r>
       <r>  -21.1380    1.0000 </r>
       <r>  -20.7686    1.0000 </r>
       <r>  -19.6743    1.0000 </r>
       <r>  -18.9584    1.0000 </r>
       <r>  -17.9170    1.0000 </r>
       <r>  -17.5945    1.0000 </r>
       <r>  -17.5715    1.0000 </r>
       <r>  -16.6698    1.0000 </r>
       <r>  -15.2579    1.0000 </r>
       <r>  -15.2531    1.0000 </r>
       <r>  -14.6294    1.0000 </r>
       <r>  -13.7220    1.0000 </r>
       <r>  -12.8256    1.0000 </r>
       <r>  -11.9046    1.0000 </r>
       <r>  -11.6829    1.0000 </r>
       <r>  -11.3850    1.0000 </r>
       <r>  -10.0344    1.0000 </r>
       <r>   -9.9156    1.0000 </r>
       <r>   -9.9067    1.0000 </r>
       <r>   -9.7183    1.0000 </r>
       <r>   -9.6296    1.0000 </r>
       <r>   -9.2825    1.0000 </r>
       <r>   -9.2670    1.0000 </r>
       <r>   -9.0370    1.0000 </r>
       <r>   -8.6074    1.0000 </r>
       <r>   -8.2683    1.0000 </r>
       <r>   -7.5713    1.0000 </r>
       <r>   -7.3543    1.0000 </r>
       <r>   -7.1414    1.0000 </r>
       <r>   -6.5666    1.0000 </r>
       <r>   -6.5465    1.0000 </r>
       <r>   -5.5864    1.0000 </r>
       <r>   -5.3827    1.0000 </r>
       <r>   -5.0765    1.0000 </r>
       <r>   -4.4285    1.0000 </r>
       <r>   -1.3032    0.0000 </r>
       <r>   -0.6904    0.0000 </r>
       <r>   -0.4208    0.0000 </r>
       <r>   -0.2880    0.0000 </r>
       <r>    1.0282    0.0000 </r>
       <r>    1.2187    0.0000 </r>
       <r>    1.8271    0.0000 </r>
       <r>    2.0447    0.0000 </r>
       <r>    2.1578    0.0000 </r>
       <r>    2.4036    0.0000 </r>
      </set>
      <set comment="kpoint 18">
       <r>  -21.8816    1.0000 </r>
       <r>  -21.1377    1.0000 </r>
       <r>  -20.7689    1.0000 </r>
       <r>  -19.6747    1.0000 </r>
       <r>  -18.9580    1.0000 </r>
       <r>  -17.9166    1.0000 </r>
       <r>  -17.5962    1.0000 </r>
       <r>  -17.5709    1.0000 </r>
       <r>  -16.6698    1.0000 </r>
       <r>  -15.2566    1.0000 </r>
       <r>  -15.2448    1.0000 </r>
       <r>  -14.6374    1.0000 </r>
       <r>  -13.7263    1.0000 </r>
       <r>  -12.8225    1.0000 </r>
       <r>  -11.8998    1.0000 </r>
       <r>  -11.6891    1.0000 </r>
       <r>  -11.3860    1.0000 </r>
       <r>  -10.0381    1.0000 </r>
       <r>   -9.9253    1.0000 </r>
       <r>   -9.9135    1.0000 </r>
       <r>   -9.7079    1.0000 </r>
       <r>   -9.6224    1.0000 </r>
       <r>   -9.2899    1.0000 </r>
       <r>   -9.2550    1.0000 </r>
       <r>   -9.0380    1.0000 </r>
       <r>   -8.6060    1.0000 </r>
       <r>   -8.2498    1.0000 </r>
       <r>   -7.5896    1.0000 </r>
       <r>   -7.3527    1.0000 </r>
       <r>   -7.1314    1.0000 </r>
       <r>   -6.5692    1.0000 </r>
       <r>   -6.5565    1.0000 </r>
       <r>   -5.5798    1.0000 </r>
       <r>   -5.3918    1.0000 </r>
       <r>   -5.0749    1.0000 </r>
       <r>   -4.4301    1.0000 </r>
       <r>   -1.3008    0.0000 </r>
       <r>   -0.6746    0.0000 </r>
       <r>   -0.4231    0.0000 </r>
       <r>   -0.3014    0.0000 </r>
       <r>    1.0282    0.0000 </r>
       <r>    1.2242    0.0000 </r>
       <r>    1.8270    0.0000 </r>
       <r>    2.0446    0.0000 </r>
       <r>    2.1578    0.0000 </r>
       <r>    2.3990    0.0000 </r>
      </set>
      <set comment="kpoint 19">
       <r>  -21.8817    1.0000 </r>
       <r>  -21.1380    1.0000 </r>
       <r>  -20.7687    1.0000 </r>
       <r>  -19.6743    1.0000 </r>
       <r>  -18.9578    1.0000 </r>
       <r>  -17.9167    1.0000 </r>
       <r>  -17.5936    1.0000 </r>
       <r>  -17.5724    1.0000 </r>
       <r>  -16.6737    1.0000 </r>
       <r>  -15.2593    1.0000 </r>
       <r>  -15.2398    1.0000 </r>
       <r>  -14.6377    1.0000 </r>
       <r>  -13.7334    1.0000 </r>
       <r>  -12.8152    1.0000 </r>
       <r>  -11.8921    1.0000 </r>
       <r>  -11.6758    1.0000 </r>
       <r>  -11.3951    1.0000 </r>
       <r>  -10.0475    1.0000 </r>
       <r>   -9.9193    1.0000 </r>
       <r>   -9.9121    1.0000 </r>
       <r>   -9.7069    1.0000 </r>
       <r>   -9.6375    1.0000 </r>
       <r>   -9.2820    1.0000 </r>
       <r>   -9.2632    1.0000 </r>
       <r>   -9.0374    1.0000 </r>
       <r>   -8.6068    1.0000 </r>
       <r>   -8.2583    1.0000 </r>
       <r>   -7.5757    1.0000 </r>
       <r>   -7.3554    1.0000 </r>
       <r>   -7.1549    1.0000 </r>
       <r>   -6.5702    1.0000 </r>
       <r>   -6.5329    1.0000 </r>
       <r>   -5.5786    1.0000 </r>
       <r>   -5.3821    1.0000 </r>
       <r>   -5.0706    1.0000 </r>
       <r>   -4.4398    1.0000 </r>
       <r>   -1.2860    0.0000 </r>
       <r>   -0.6913    0.0000 </r>
       <r>   -0.4317    0.0000 </r>
       <r>   -0.3040    0.0000 </r>
       <r>    1.0282    0.0000 </r>
       <r>    1.2301    0.0000 </r>
       <r>    1.8271    0.0000 </r>
       <r>    2.0446    0.0000 </r>
       <r>    2.1578    0.0000 </r>
       <r>    2.4072    0.0000 </r>
      </set>
      <set comment="kpoint 20">
       <r>  -21.5653    1.0000 </r>
       <r>  -21.5589    1.0000 </r>
       <r>  -20.8213    1.0000 </r>
       <r>  -19.7261    1.0000 </r>
       <r>  -18.3108    1.0000 </r>
       <r>  -18.3015    1.0000 </r>
       <r>  -17.3127    1.0000 </r>
       <r>  -17.3030    1.0000 </r>
       <r>  -16.9849    1.0000 </r>
       <r>  -15.9436    1.0000 </r>
       <r>  -15.0141    1.0000 </r>
       <r>  -15.0024    1.0000 </r>
       <r>  -13.2882    1.0000 </r>
       <r>  -13.2751    1.0000 </r>
       <r>  -11.3538    1.0000 </r>
       <r>  -10.9952    1.0000 </r>
       <r>  -10.9810    1.0000 </r>
       <r>  -10.5074    1.0000 </r>
       <r>  -10.4954    1.0000 </r>
       <r>   -9.9106    1.0000 </r>
       <r>   -9.6295    1.0000 </r>
       <r>   -9.5382    1.0000 </r>
       <r>   -9.5331    1.0000 </r>
       <r>   -9.3322    1.0000 </r>
       <r>   -8.6676    1.0000 </r>
       <r>   -8.4247    1.0000 </r>
       <r>   -8.1372    1.0000 </r>
       <r>   -8.1229    1.0000 </r>
       <r>   -7.4099    1.0000 </r>
       <r>   -7.0564    1.0000 </r>
       <r>   -7.0378    1.0000 </r>
       <r>   -5.8603    1.0000 </r>
       <r>   -5.8510    1.0000 </r>
       <r>   -5.0596    1.0000 </r>
       <r>   -5.0194    1.0000 </r>
       <r>   -5.0068    1.0000 </r>
       <r>   -1.0957    0.0000 </r>
       <r>   -0.8301    0.0000 </r>
       <r>   -0.8127    0.0000 </r>
       <r>    0.4033    0.0000 </r>
       <r>    0.4171    0.0000 </r>
       <r>    1.4638    0.0000 </r>
       <r>    1.4645    0.0000 </r>
       <r>    2.2673    0.0000 </r>
       <r>    2.2676    0.0000 </r>
       <r>    2.4841    0.0000 </r>
      </set>
      <set comment="kpoint 21">
       <r>  -21.5684    1.0000 </r>
       <r>  -21.5556    1.0000 </r>
       <r>  -20.8216    1.0000 </r>
       <r>  -19.7265    1.0000 </r>
       <r>  -18.3152    1.0000 </r>
       <r>  -18.2966    1.0000 </r>
       <r>  -17.3168    1.0000 </r>
       <r>  -17.2973    1.0000 </r>
       <r>  -16.9909    1.0000 </r>
       <r>  -15.9300    1.0000 </r>
       <r>  -15.0192    1.0000 </r>
       <r>  -15.0057    1.0000 </r>
       <r>  -13.2895    1.0000 </r>
       <r>  -13.2754    1.0000 </r>
       <r>  -11.3672    1.0000 </r>
       <r>  -10.9929    1.0000 </r>
       <r>  -10.9818    1.0000 </r>
       <r>  -10.5025    1.0000 </r>
       <r>  -10.4916    1.0000 </r>
       <r>   -9.8951    1.0000 </r>
       <r>   -9.6463    1.0000 </r>
       <r>   -9.5413    1.0000 </r>
       <r>   -9.5309    1.0000 </r>
       <r>   -9.3430    1.0000 </r>
       <r>   -8.6665    1.0000 </r>
       <r>   -8.4071    1.0000 </r>
       <r>   -8.1269    1.0000 </r>
       <r>   -8.1006    1.0000 </r>
       <r>   -7.4077    1.0000 </r>
       <r>   -7.0806    1.0000 </r>
       <r>   -7.0492    1.0000 </r>
       <r>   -5.8638    1.0000 </r>
       <r>   -5.8482    1.0000 </r>
       <r>   -5.0711    1.0000 </r>
       <r>   -5.0169    1.0000 </r>
       <r>   -5.0031    1.0000 </r>
       <r>   -1.0769    0.0000 </r>
       <r>   -0.8323    0.0000 </r>
       <r>   -0.8212    0.0000 </r>
       <r>    0.4045    0.0000 </r>
       <r>    0.4182    0.0000 </r>
       <r>    1.4634    0.0000 </r>
       <r>    1.4649    0.0000 </r>
       <r>    2.2671    0.0000 </r>
       <r>    2.2677    0.0000 </r>
       <r>    2.5446    0.0000 </r>
      </set>
      <set comment="kpoint 22">
       <r>  -21.5653    1.0000 </r>
       <r>  -21.5589    1.0000 </r>
       <r>  -20.8213    1.0000 </r>
       <r>  -19.7261    1.0000 </r>
       <r>  -18.3108    1.0000 </r>
       <r>  -18.3015    1.0000 </r>
       <r>  -17.3127    1.0000 </r>
       <r>  -17.3030    1.0000 </r>
       <r>  -16.9849    1.0000 </r>
       <r>  -15.9436    1.0000 </r>
       <r>  -15.0141    1.0000 </r>
       <r>  -15.0023    1.0000 </r>
       <r>  -13.2883    1.0000 </r>
       <r>  -13.2751    1.0000 </r>
       <r>  -11.3538    1.0000 </r>
       <r>  -10.9952    1.0000 </r>
       <r>  -10.9810    1.0000 </r>
       <r>  -10.5074    1.0000 </r>
       <r>  -10.4954    1.0000 </r>
       <r>   -9.9106    1.0000 </r>
       <r>   -9.6295    1.0000 </r>
       <r>   -9.5383    1.0000 </r>
       <r>   -9.5330    1.0000 </r>
       <r>   -9.3322    1.0000 </r>
       <r>   -8.6676    1.0000 </r>
       <r>   -8.4247    1.0000 </r>
       <r>   -8.1372    1.0000 </r>
       <r>   -8.1229    1.0000 </r>
       <r>   -7.4099    1.0000 </r>
       <r>   -7.0565    1.0000 </r>
       <r>   -7.0377    1.0000 </r>
       <r>   -5.8602    1.0000 </r>
       <r>   -5.8510    1.0000 </r>
       <r>   -5.0596    1.0000 </r>
       <r>   -5.0194    1.0000 </r>
       <r>   -5.0068    1.0000 </r>
       <r>   -1.0957    0.0000 </r>
       <r>   -0.8301    0.0000 </r>
       <r>   -0.8126    0.0000 </r>
       <r>    0.4032    0.0000 </r>
       <r>    0.4172    0.0000 </r>
       <r>    1.4638    0.0000 </r>
       <r>    1.4646    0.0000 </r>
       <r>    2.2673    0.0000 </r>
       <r>    2.2676    0.0000 </r>
       <r>    2.4864    0.0000 </r>
      </set>
      <set comment="kpoint 23">
       <r>  -21.6153    1.0000 </r>
       <r>  -21.2470    1.0000 </r>
       <r>  -21.2404    1.0000 </r>
       <r>  -19.0647    1.0000 </r>
       <r>  -19.0557    1.0000 </r>
       <r>  -18.3555    1.0000 </r>
       <r>  -17.0933    1.0000 </r>
       <r>  -17.0858    1.0000 </r>
       <r>  -16.7092    1.0000 </r>
       <r>  -15.6816    1.0000 </r>
       <r>  -15.6186    1.0000 </r>
       <r>  -15.6057    1.0000 </r>
       <r>  -12.9143    1.0000 </r>
       <r>  -12.2719    1.0000 </r>
       <r>  -12.2606    1.0000 </r>
       <r>  -11.3584    1.0000 </r>
       <r>  -10.5558    1.0000 </r>
       <r>  -10.5519    1.0000 </r>
       <r>  -10.5382    1.0000 </r>
       <r>   -9.8275    1.0000 </r>
       <r>   -9.8152    1.0000 </r>
       <r>   -9.5989    1.0000 </r>
       <r>   -9.1636    1.0000 </r>
       <r>   -9.1583    1.0000 </r>
       <r>   -8.8346    1.0000 </r>
       <r>   -8.8114    1.0000 </r>
       <r>   -7.8767    1.0000 </r>
       <r>   -7.6973    1.0000 </r>
       <r>   -7.6718    1.0000 </r>
       <r>   -7.0888    1.0000 </r>
       <r>   -6.6682    1.0000 </r>
       <r>   -6.6599    1.0000 </r>
       <r>   -5.8947    1.0000 </r>
       <r>   -5.0129    1.0000 </r>
       <r>   -5.0013    1.0000 </r>
       <r>   -4.6690    1.0000 </r>
       <r>   -1.2339    0.0000 </r>
       <r>   -1.0305    0.0000 </r>
       <r>   -1.0122    0.0000 </r>
       <r>    0.5314    0.0000 </r>
       <r>    1.3911    0.0000 </r>
       <r>    1.4745    0.0000 </r>
       <r>    1.4865    0.0000 </r>
       <r>    1.8998    0.0000 </r>
       <r>    1.9008    0.0000 </r>
       <r>    2.1942    0.0000 </r>
      </set>
      <set comment="kpoint 24">
       <r>  -21.6153    1.0000 </r>
       <r>  -21.2469    1.0000 </r>
       <r>  -21.2405    1.0000 </r>
       <r>  -19.0647    1.0000 </r>
       <r>  -19.0558    1.0000 </r>
       <r>  -18.3555    1.0000 </r>
       <r>  -17.0932    1.0000 </r>
       <r>  -17.0858    1.0000 </r>
       <r>  -16.7092    1.0000 </r>
       <r>  -15.6816    1.0000 </r>
       <r>  -15.6186    1.0000 </r>
       <r>  -15.6057    1.0000 </r>
       <r>  -12.9143    1.0000 </r>
       <r>  -12.2719    1.0000 </r>
       <r>  -12.2606    1.0000 </r>
       <r>  -11.3584    1.0000 </r>
       <r>  -10.5558    1.0000 </r>
       <r>  -10.5519    1.0000 </r>
       <r>  -10.5383    1.0000 </r>
       <r>   -9.8275    1.0000 </r>
       <r>   -9.8152    1.0000 </r>
       <r>   -9.5989    1.0000 </r>
       <r>   -9.1635    1.0000 </r>
       <r>   -9.1583    1.0000 </r>
       <r>   -8.8346    1.0000 </r>
       <r>   -8.8115    1.0000 </r>
       <r>   -7.8768    1.0000 </r>
       <r>   -7.6973    1.0000 </r>
       <r>   -7.6718    1.0000 </r>
       <r>   -7.0888    1.0000 </r>
       <r>   -6.6683    1.0000 </r>
       <r>   -6.6598    1.0000 </r>
       <r>   -5.8947    1.0000 </r>
       <r>   -5.0129    1.0000 </r>
       <r>   -5.0013    1.0000 </r>
       <r>   -4.6690    1.0000 </r>
       <r>   -1.2339    0.0000 </r>
       <r>   -1.0304    0.0000 </r>
       <r>   -1.0123    0.0000 </r>
       <r>    0.5314    0.0000 </r>
       <r>    1.3911    0.0000 </r>
       <r>    1.4744    0.0000 </r>
       <r>    1.4866    0.0000 </r>
       <r>    1.9000    0.0000 </r>
       <r>    1.9006    0.0000 </r>
       <r>    2.1942    0.0000 </r>
      </set>
      <set comment="kpoint 25">
       <r>  -21.6154    1.0000 </r>
       <r>  -21.2501    1.0000 </r>
       <r>  -21.2372    1.0000 </r>
       <r>  -19.0689    1.0000 </r>
       <r>  -19.0509    1.0000 </r>
       <r>  -18.3559    1.0000 </r>
       <r>  -17.0945    1.0000 </r>
       <r>  -17.0810    1.0000 </r>
       <r>  -16.7157    1.0000 </r>
       <r>  -15.6678    1.0000 </r>
       <r>  -15.6247    1.0000 </r>
       <r>  -15.6106    1.0000 </r>
       <r>  -12.9257    1.0000 </r>
       <r>  -12.2643    1.0000 </r>
       <r>  -12.2508    1.0000 </r>
       <r>  -11.3455    1.0000 </r>
       <r>  -10.5706    1.0000 </r>
       <r>  -10.5598    1.0000 </r>
       <r>  -10.5456    1.0000 </r>
       <r>   -9.8220    1.0000 </r>
       <r>   -9.8097    1.0000 </r>
       <r>   -9.5984    1.0000 </r>
       <r>   -9.1663    1.0000 </r>
       <r>   -9.1560    1.0000 </r>
       <r>   -8.8327    1.0000 </r>
       <r>   -8.8068    1.0000 </r>
       <r>   -7.8961    1.0000 </r>
       <r>   -7.7011    1.0000 </r>
       <r>   -7.6750    1.0000 </r>
       <r>   -7.0680    1.0000 </r>
       <r>   -6.6741    1.0000 </r>
       <r>   -6.6580    1.0000 </r>
       <r>   -5.8908    1.0000 </r>
       <r>   -5.0065    1.0000 </r>
       <r>   -4.9959    1.0000 </r>
       <r>   -4.6807    1.0000 </r>
       <r>   -1.2158    0.0000 </r>
       <r>   -1.0369    0.0000 </r>
       <r>   -1.0252    0.0000 </r>
       <r>    0.5217    0.0000 </r>
       <r>    1.3913    0.0000 </r>
       <r>    1.4773    0.0000 </r>
       <r>    1.4957    0.0000 </r>
       <r>    1.8996    0.0000 </r>
       <r>    1.9009    0.0000 </r>
       <r>    2.1942    0.0000 </r>
      </set>
     </set>
    </set>
   </array>
  </eigenvalues>
  <separator name="orbital magnetization" >
   <v name="MAGDIPOLOUT">      0.00000000      0.00000000      0.00000000</v>
  </separator>
  <dos>
   <i name="efermi">     -2.75533542 </i>
   <total>
    <array>
     <dimension dim="1">gridpoints</dimension>
     <dimension dim="2">spin</dimension>
     <field>energy</field>
     <field>total</field>
     <field>integrated</field>
     <set>
      <set comment="spin 1">
       <r>   -23.5113     0.0000     0.0000 </r>
       <r>   -23.4192     0.0000     0.0000 </r>
       <r>   -23.3272     0.0000     0.0000 </r>
       <r>   -23.2351     0.0000     0.0000 </r>
       <r>   -23.1430     0.0000     0.0000 </r>
       <r>   -23.0510     0.0000     0.0000 </r>
       <r>   -22.9589     0.0000     0.0000 </r>
       <r>   -22.8669     0.0000     0.0000 </r>
       <r>   -22.7748     0.0000     0.0000 </r>
       <r>   -22.6827     0.0000     0.0000 </r>
       <r>   -22.5907     0.0000     0.0000 </r>
       <r>   -22.4986     0.0000     0.0000 </r>
       <r>   -22.4066     0.0000     0.0000 </r>
       <r>   -22.3145     0.0236     0.0022 </r>
       <r>   -22.2224     1.1017     0.1036 </r>
       <r>   -22.1304     2.3658     0.3214 </r>
       <r>   -22.0383     3.5653     0.6496 </r>
       <r>   -21.9463     1.5380     0.7912 </r>
       <r>   -21.8542     4.0183     1.1611 </r>
       <r>   -21.7621     2.8376     1.4224 </r>
       <r>   -21.6701     1.1183     1.5253 </r>
       <r>   -21.5780     3.8486     1.8796 </r>
       <r>   -21.4860     3.9051     2.2391 </r>
       <r>   -21.3939     1.6538     2.3913 </r>
       <r>   -21.3018     1.3370     2.5144 </r>
       <r>   -21.2098     4.2557     2.9062 </r>
       <r>   -21.1177     4.6048     3.3301 </r>
       <r>   -21.0257     1.5156     3.4696 </r>
       <r>   -20.9336     1.1214     3.5729 </r>
       <r>   -20.8416     2.3767     3.7917 </r>
       <r>   -20.7495     5.5250     4.3003 </r>
       <r>   -20.6574     2.1237     4.4958 </r>
       <r>   -20.5654     4.2781     4.8896 </r>
       <r>   -20.4733     0.5340     4.9388 </r>
       <r>   -20.3813     0.5329     4.9879 </r>
       <r>   -20.2892     5.1611     5.4630 </r>
       <r>   -20.1971     4.6706     5.8930 </r>
       <r>   -20.1051     2.9000     6.1599 </r>
       <r>   -20.0130     1.1576     6.2665 </r>
       <r>   -19.9210     3.9942     6.6342 </r>
       <r>   -19.8289     0.2097     6.6535 </r>
       <r>   -19.7368     1.3356     6.7765 </r>
       <r>   -19.6448     7.6154     7.4775 </r>
       <r>   -19.5527     2.6212     7.7188 </r>
       <r>   -19.4607     4.1129     8.0975 </r>
       <r>   -19.3686     0.2793     8.1232 </r>
       <r>   -19.2765     1.8370     8.2923 </r>
       <r>   -19.1845     3.3984     8.6052 </r>
       <r>   -19.0924     1.0579     8.7025 </r>
       <r>   -19.0004     4.7093     9.1361 </r>
       <r>   -18.9083     5.7874     9.6689 </r>
       <r>   -18.8162     2.0451     9.8571 </r>
       <r>   -18.7242     4.0757    10.2324 </r>
       <r>   -18.6321     1.0214    10.3264 </r>
       <r>   -18.5401     0.0467    10.3307 </r>
       <r>   -18.4480     3.0339    10.6100 </r>
       <r>   -18.3559     3.9871    10.9770 </r>
       <r>   -18.2639     5.5902    11.4917 </r>
       <r>   -18.1718     2.5222    11.7239 </r>
       <r>   -18.0798     4.2100    12.1114 </r>
       <r>   -17.9877     1.9678    12.2926 </r>
       <r>   -17.8956     3.7814    12.6407 </r>
       <r>   -17.8036     1.4607    12.7752 </r>
       <r>   -17.7115     0.0064    12.7758 </r>
       <r>   -17.6195     1.7559    12.9374 </r>
       <r>   -17.5274     8.6981    13.7382 </r>
       <r>   -17.4354     4.9759    14.1962 </r>
       <r>   -17.3433     1.3851    14.3237 </r>
       <r>   -17.2512     4.8463    14.7699 </r>
       <r>   -17.1592     2.3426    14.9855 </r>
       <r>   -17.0671     3.8485    15.3398 </r>
       <r>   -16.9751     3.0809    15.6235 </r>
       <r>   -16.8830     0.9866    15.7143 </r>
       <r>   -16.7909     1.5423    15.8563 </r>
       <r>   -16.6989     8.7292    16.6599 </r>
       <r>   -16.6068     5.5005    17.1662 </r>
       <r>   -16.5148     0.1893    17.1837 </r>
       <r>   -16.4227     0.0000    17.1837 </r>
       <r>   -16.3306     0.0000    17.1837 </r>
       <r>   -16.2386     0.0405    17.1874 </r>
       <r>   -16.1465     1.7300    17.3467 </r>
       <r>   -16.0545     1.1518    17.4527 </r>
       <r>   -15.9624     4.7914    17.8938 </r>
       <r>   -15.8703     2.8522    18.1563 </r>
       <r>   -15.7783     0.5624    18.2081 </r>
       <r>   -15.6862     3.2262    18.5051 </r>
       <r>   -15.5942     5.3484    18.9975 </r>
       <r>   -15.5021     1.5740    19.1424 </r>
       <r>   -15.4100     0.0573    19.1477 </r>
       <r>   -15.3180     1.6433    19.2989 </r>
       <r>   -15.2259     9.9563    20.2155 </r>
       <r>   -15.1339     3.4141    20.5298 </r>
       <r>   -15.0418     0.9954    20.6215 </r>
       <r>   -14.9497     4.8986    21.0724 </r>
       <r>   -14.8577     4.4372    21.4809 </r>
       <r>   -14.7656     1.2966    21.6003 </r>
       <r>   -14.6736     2.8299    21.8608 </r>
       <r>   -14.5815     8.5164    22.6448 </r>
       <r>   -14.4894     0.9758    22.7346 </r>
       <r>   -14.3974     0.0948    22.7434 </r>
       <r>   -14.3053     3.7524    23.0888 </r>
       <r>   -14.2133     4.1628    23.4720 </r>
       <r>   -14.1212     4.4716    23.8837 </r>
       <r>   -14.0291     0.8947    23.9661 </r>
       <r>   -13.9371     3.3846    24.2776 </r>
       <r>   -13.8450     1.8556    24.4485 </r>
       <r>   -13.7530     1.2587    24.5643 </r>
       <r>   -13.6609     4.0007    24.9326 </r>
       <r>   -13.5689     2.3094    25.1452 </r>
       <r>   -13.4768     4.3327    25.5441 </r>
       <r>   -13.3847     1.4163    25.6745 </r>
       <r>   -13.2927     2.4398    25.8991 </r>
       <r>   -13.2006     3.6878    26.2386 </r>
       <r>   -13.1086     0.0690    26.2449 </r>
       <r>   -13.0165     0.7991    26.3185 </r>
       <r>   -12.9244     9.4310    27.1867 </r>
       <r>   -12.8324     5.0471    27.6513 </r>
       <r>   -12.7403     3.2819    27.9535 </r>
       <r>   -12.6483     0.3585    27.9865 </r>
       <r>   -12.5562     2.1345    28.1830 </r>
       <r>   -12.4641     0.2526    28.2062 </r>
       <r>   -12.3721     1.5874    28.3524 </r>
       <r>   -12.2800     7.9417    29.0835 </r>
       <r>   -12.1880     8.6940    29.8839 </r>
       <r>   -12.0959     2.9977    30.1598 </r>
       <r>   -12.0038     0.0461    30.1641 </r>
       <r>   -11.9118     1.8988    30.3389 </r>
       <r>   -11.8197     3.3910    30.6510 </r>
       <r>   -11.7277     3.6737    30.9892 </r>
       <r>   -11.6356     6.4724    31.5851 </r>
       <r>   -11.5435     0.5165    31.6326 </r>
       <r>   -11.4515     0.2300    31.6538 </r>
       <r>   -11.3594     6.4777    32.2501 </r>
       <r>   -11.2674     6.0497    32.8071 </r>
       <r>   -11.1753     3.3754    33.1178 </r>
       <r>   -11.0832     5.5665    33.6303 </r>
       <r>   -10.9912     4.6991    34.0629 </r>
       <r>   -10.8991     2.8280    34.3232 </r>
       <r>   -10.8071     0.0361    34.3265 </r>
       <r>   -10.7150     0.0033    34.3268 </r>
       <r>   -10.6229     1.4951    34.4645 </r>
       <r>   -10.5309    11.0079    35.4778 </r>
       <r>   -10.4388    10.6819    36.4612 </r>
       <r>   -10.3468     2.8226    36.7211 </r>
       <r>   -10.2547     5.9356    37.2675 </r>
       <r>   -10.1627     2.0531    37.4565 </r>
       <r>   -10.0706     4.2793    37.8504 </r>
       <r>    -9.9785     4.9742    38.3084 </r>
       <r>    -9.8865    10.8195    39.3044 </r>
       <r>    -9.7944    10.0136    40.2263 </r>
       <r>    -9.7024     6.2132    40.7982 </r>
       <r>    -9.6103     8.8075    41.6091 </r>
       <r>    -9.5182     8.8248    42.4215 </r>
       <r>    -9.4262     5.5174    42.9294 </r>
       <r>    -9.3341     3.7798    43.2774 </r>
       <r>    -9.2421    10.3936    44.2342 </r>
       <r>    -9.1500    11.9500    45.3343 </r>
       <r>    -9.0579    14.9087    46.7068 </r>
       <r>    -8.9659     6.7946    47.3323 </r>
       <r>    -8.8738     3.0225    47.6105 </r>
       <r>    -8.7818    12.4935    48.7607 </r>
       <r>    -8.6897     6.8289    49.3893 </r>
       <r>    -8.5976     7.4232    50.0727 </r>
       <r>    -8.5056     7.0738    50.7239 </r>
       <r>    -8.4135     8.0712    51.4670 </r>
       <r>    -8.3215     3.3322    51.7737 </r>
       <r>    -8.2294     4.0354    52.1452 </r>
       <r>    -8.1373     5.5441    52.6556 </r>
       <r>    -8.0453    13.8008    53.9261 </r>
       <r>    -7.9532     5.2450    54.4090 </r>
       <r>    -7.8612     4.9761    54.8671 </r>
       <r>    -7.7691     1.1722    54.9750 </r>
       <r>    -7.6770     8.4226    55.7503 </r>
       <r>    -7.5850     7.0120    56.3959 </r>
       <r>    -7.4929     5.1501    56.8700 </r>
       <r>    -7.4009     2.9289    57.1396 </r>
       <r>    -7.3088     7.3579    57.8170 </r>
       <r>    -7.2167     2.2684    58.0258 </r>
       <r>    -7.1247    10.0415    58.9502 </r>
       <r>    -7.0326     7.7983    59.6681 </r>
       <r>    -6.9406     3.4672    59.9873 </r>
       <r>    -6.8485     3.5851    60.3173 </r>
       <r>    -6.7564     0.1433    60.3305 </r>
       <r>    -6.6644     4.3125    60.7275 </r>
       <r>    -6.5723    10.5610    61.6998 </r>
       <r>    -6.4803     8.8295    62.5126 </r>
       <r>    -6.3882     4.1208    62.8920 </r>
       <r>    -6.2962     4.0337    63.2633 </r>
       <r>    -6.2041     1.7672    63.4260 </r>
       <r>    -6.1120     4.9725    63.8838 </r>
       <r>    -6.0200     4.8063    64.3263 </r>
       <r>    -5.9279     2.8633    64.5898 </r>
       <r>    -5.8359     7.9350    65.3203 </r>
       <r>    -5.7438     7.1464    65.9782 </r>
       <r>    -5.6517     3.4466    66.2955 </r>
       <r>    -5.5597     3.7850    66.6440 </r>
       <r>    -5.4676     1.4820    66.7804 </r>
       <r>    -5.3756     3.1935    67.0744 </r>
       <r>    -5.2835     2.0856    67.2664 </r>
       <r>    -5.1914     1.5232    67.4066 </r>
       <r>    -5.0994     3.2403    67.7049 </r>
       <r>    -5.0073    15.6332    69.1441 </r>
       <r>    -4.9153     6.1414    69.7095 </r>
       <r>    -4.8232     0.0524    69.7143 </r>
       <r>    -4.7311     0.1379    69.7270 </r>
       <r>    -4.6391     2.0640    69.9170 </r>
       <r>    -4.5470     0.4614    69.9595 </r>
       <r>    -4.4550     1.4189    70.0901 </r>
       <r>    -4.3629     3.9636    70.4550 </r>
       <r>    -4.2708     5.0576    70.9206 </r>
       <r>    -4.1788     2.8213    71.1803 </r>
       <r>    -4.0867     0.0366    71.1837 </r>
       <r>    -3.9947     0.0103    71.1846 </r>
       <r>    -3.9026     1.2232    71.2972 </r>
       <r>    -3.8105     1.4096    71.4270 </r>
       <r>    -3.7185     0.0172    71.4286 </r>
       <r>    -3.6264     0.0139    71.4298 </r>
       <r>    -3.5344     2.1923    71.6317 </r>
       <r>    -3.4423     3.0659    71.9139 </r>
       <r>    -3.3502     0.0483    71.9184 </r>
       <r>    -3.2582     0.0000    71.9184 </r>
       <r>    -3.1661     0.0000    71.9184 </r>
       <r>    -3.0741     0.0000    71.9184 </r>
       <r>    -2.9820     0.0000    71.9184 </r>
       <r>    -2.8900     0.0002    71.9184 </r>
       <r>    -2.7979     0.2197    71.9386 </r>
       <r>    -2.7058     1.3933    72.0669 </r>
       <r>    -2.6138     0.1601    72.0816 </r>
       <r>    -2.5217     0.0001    72.0816 </r>
       <r>    -2.4297     0.0000    72.0816 </r>
       <r>    -2.3376     0.0000    72.0816 </r>
       <r>    -2.2455     0.0000    72.0816 </r>
       <r>    -2.1535     0.0001    72.0816 </r>
       <r>    -2.0614     0.2998    72.1092 </r>
       <r>    -1.9694     4.1560    72.4918 </r>
       <r>    -1.8773     0.8635    72.5713 </r>
       <r>    -1.7852     0.0516    72.5761 </r>
       <r>    -1.6932     1.7702    72.7390 </r>
       <r>    -1.6011     0.8362    72.8160 </r>
       <r>    -1.5091     0.0033    72.8163 </r>
       <r>    -1.4170     0.0027    72.8166 </r>
       <r>    -1.3249     1.9284    72.9941 </r>
       <r>    -1.2329    11.4267    74.0460 </r>
       <r>    -1.1408     2.7939    74.3032 </r>
       <r>    -1.0488     3.5118    74.6265 </r>
       <r>    -0.9567     5.8275    75.1630 </r>
       <r>    -0.8646     1.7798    75.3269 </r>
       <r>    -0.7726     4.2580    75.7189 </r>
       <r>    -0.6805     3.3634    76.0285 </r>
       <r>    -0.5885     4.7760    76.4682 </r>
       <r>    -0.4964     2.9804    76.7425 </r>
       <r>    -0.4043     3.7571    77.0884 </r>
       <r>    -0.3123     3.3563    77.3974 </r>
       <r>    -0.2202     5.1901    77.8752 </r>
       <r>    -0.1282     0.9091    77.9589 </r>
       <r>    -0.0361     0.0035    77.9592 </r>
       <r>     0.0560     0.5362    78.0086 </r>
       <r>     0.1480     4.2508    78.3999 </r>
       <r>     0.2401     1.4993    78.5379 </r>
       <r>     0.3321     4.1616    78.9210 </r>
       <r>     0.4242     3.6417    79.2563 </r>
       <r>     0.5163     3.0915    79.5409 </r>
       <r>     0.6083     3.6475    79.8767 </r>
       <r>     0.7004     1.3263    79.9988 </r>
       <r>     0.7924     5.8560    80.5379 </r>
       <r>     0.8845     5.8939    81.0805 </r>
       <r>     0.9765     1.4988    81.2184 </r>
       <r>     1.0686     4.2743    81.6119 </r>
       <r>     1.1607     1.8171    81.7792 </r>
       <r>     1.2527     5.6862    82.3027 </r>
       <r>     1.3448     2.0911    82.4952 </r>
       <r>     1.4368     6.9043    83.1308 </r>
       <r>     1.5289    14.0729    84.4263 </r>
       <r>     1.6210     4.4725    84.8381 </r>
       <r>     1.7130     4.6400    85.2652 </r>
       <r>     1.8051     3.3655    85.5751 </r>
       <r>     1.8971     8.7809    86.3834 </r>
       <r>     1.9892     8.9132    87.2040 </r>
       <r>     2.0813     9.2291    88.0536 </r>
       <r>     2.1733     6.8941    88.6883 </r>
       <r>     2.2654     6.9157    89.3249 </r>
       <r>     2.3574     7.4016    90.0063 </r>
       <r>     2.4495     5.8528    90.5451 </r>
       <r>     2.5416     4.4452    90.9543 </r>
       <r>     2.6336     2.1557    91.1528 </r>
       <r>     2.7257     1.9381    91.3312 </r>
       <r>     2.8177     4.6198    91.7565 </r>
       <r>     2.9098     2.5150    91.9880 </r>
       <r>     3.0019     0.1298    92.0000 </r>
       <r>     3.0939     0.0000    92.0000 </r>
       <r>     3.1860     0.0000    92.0000 </r>
       <r>     3.2780     0.0000    92.0000 </r>
       <r>     3.3701     0.0000    92.0000 </r>
       <r>     3.4622     0.0000    92.0000 </r>
       <r>     3.5542     0.0000    92.0000 </r>
       <r>     3.6463     0.0000    92.0000 </r>
       <r>     3.7383     0.0000    92.0000 </r>
       <r>     3.8304     0.0000    92.0000 </r>
       <r>     3.9225     0.0000    92.0000 </r>
       <r>     4.0145     0.0000    92.0000 </r>
       <r>     4.1066     0.0000    92.0000 </r>
      </set>
     </set>
    </array>
   </total>
  </dos>
 </calculation>
 <structure name="finalpos" >
  <crystal>
   <varray name="basis" >
    <v>       7.40170591       0.00000000       0.00000000 </v>
    <v>      -3.70085295       6.41006527       0.00000000 </v>
    <v>       0.00000000       0.00000000      20.00000000 </v>
   </varray>
   <i name="volume">    948.90835877 </i>
   <varray name="rec_basis" >
    <v>       0.13510399       0.07800233       0.00000000 </v>
    <v>       0.00000000       0.15600465       0.00000000 </v>
    <v>       0.00000000       0.00000000       0.05000000 </v>
   </varray>
  </crystal>
  <varray name="positions" >
   <v>       0.00000000       0.00000000       0.49950000 </v>
   <v>       0.33333333       0.00000000       0.50000000 </v>
   <v>       0.66666667       0.00000000       0.50000000 </v>
   <v>       0.00000000       0.33333333       0.50000000 </v>
   <v>       0.33333333       0.33333333       0.50000000 </v>
   <v>       0.66666667       0.33333333       0.50000000 </v>
   <v>       0.00000000       0.66666667       0.50000000 </v>
   <v>       0.33333333       0.66666667       0.50000000 </v>
   <v>       0.66666667       0.66666667       0.50000000 </v>
   <v>       0.22144220       0.10955106       0.50000000 </v>
   <v>       0.55555556       0.11111111       0.50000000 </v>
   <v>       0.88888889       0.11111111       0.50000000 </v>
   <v>       0.22222222       0.44444444       0.50000000 </v>
   <v>       0.55555556       0.44444444       0.50000000 </v>
   <v>       0.88888889       0.44444444       0.50000000 </v>
   <v>       0.22222222       0.77777778       0.50000000 </v>
   <v>       0.55555556       0.77777778       0.50000000 </v>
   <v>       0.88888889       0.77777778       0.50000000 </v>
  </varray>
 </structure>
</modeling>
