<?xml version="1.0" encoding="ISO-8859-1"?>
<modeling>
 <generator>
  <i name="program" type="string">vasp </i>
  <i name="version" type="string">6.4.1  </i>
  <i name="subversion" type="string">05Apr23 (build Feb 12 2025 00:37:39) complex                          parallel </i>
  <i name="platform" type="string">LinuxIFC </i>
  <i name="date" type="string">2025 02 14 </i>
  <i name="time" type="string">05:41:59 </i>
 </generator>
 <incar>
  <i type="string" name="SYSTEM">SCF</i>
  <i type="int" name="ISTART">     0</i>
  <i type="int" name="ICHARG">     2</i>
  <i type="int" name="NELM">    60</i>
  <i type="int" name="NELMIN">     6</i>
  <i name="EDIFF">      0.00000100</i>
  <i name="EDIFFG">     -0.00000100</i>
  <i name="ENCUT">    600.00000000</i>
  <i type="string" name="LREAL">Auto</i>
  <i type="int" name="ISMEAR">     0</i>
  <i name="SIGMA">      0.05000000</i>
  <i type="logical" name="LWAVE"> F  </i>
  <i type="logical" name="LCHARG"> F  </i>
 </incar>
 <primitive_cell>
  <structure name="primitive_cell" >
   <crystal>
    <varray name="basis" >
     <v>       7.40170591       0.00000000       0.00000000 </v>
     <v>      -3.70085295       6.41006527       0.00000000 </v>
     <v>       0.00000000       0.00000000      20.00000000 </v>
    </varray>
    <i name="volume">    948.90835877 </i>
    <varray name="rec_basis" >
     <v>       0.13510399       0.07800233       0.00000000 </v>
     <v>       0.00000000       0.15600465       0.00000000 </v>
     <v>       0.00000000       0.00000000       0.05000000 </v>
    </varray>
   </crystal>
   <varray name="positions" >
    <v>       0.00000000       0.00000000       0.49900000 </v>
    <v>       0.33333333       0.00000000       0.50000000 </v>
    <v>       0.66666667       0.00000000       0.50000000 </v>
    <v>       1.00000000       0.33333333       0.50000000 </v>
    <v>       0.33333333       0.33333333       0.50000000 </v>
    <v>       0.66666667       0.33333333       0.50000000 </v>
    <v>       1.00000000       0.66666667       0.50000000 </v>
    <v>       0.33333333       0.66666667       0.50000000 </v>
    <v>       0.66666667       0.66666667       0.50000000 </v>
    <v>       0.22222222       0.11111111       0.50000000 </v>
    <v>       0.55555556       0.11111111       0.50000000 </v>
    <v>       0.88888889       0.11111111       0.50000000 </v>
    <v>       0.22222222       0.44444444       0.50000000 </v>
    <v>       0.55555556       0.44444444       0.50000000 </v>
    <v>       0.88888889       0.44444444       0.50000000 </v>
    <v>       0.22222222       0.77777778       0.50000000 </v>
    <v>       0.55555556       0.77777778       0.50000000 </v>
    <v>       0.88888889       0.77777778       0.50000000 </v>
   </varray>
  </structure>
  <varray name="primitive_index" >
   <v type="int" >        1 </v>
   <v type="int" >        2 </v>
   <v type="int" >        3 </v>
   <v type="int" >        4 </v>
   <v type="int" >        5 </v>
   <v type="int" >        6 </v>
   <v type="int" >        7 </v>
   <v type="int" >        8 </v>
   <v type="int" >        9 </v>
   <v type="int" >       10 </v>
   <v type="int" >       11 </v>
   <v type="int" >       12 </v>
   <v type="int" >       13 </v>
   <v type="int" >       14 </v>
   <v type="int" >       15 </v>
   <v type="int" >       16 </v>
   <v type="int" >       17 </v>
   <v type="int" >       18 </v>
  </varray>
 </primitive_cell>
 <kpoints>
  <generation param="Gamma">
   <v type="int" name="divisions">       7        7        1 </v>
   <v name="usershift">      0.00000000       0.00000000       0.00000000 </v>
   <v name="genvec1">      0.14285714       0.00000000       0.00000000 </v>
   <v name="genvec2">      0.00000000       0.14285714       0.00000000 </v>
   <v name="genvec3">      0.00000000       0.00000000       1.00000000 </v>
   <v name="shift">      0.00000000       0.00000000       0.00000000 </v>
  </generation>
  <varray name="kpointlist" >
   <v>       0.00000000       0.00000000       0.00000000 </v>
   <v>       0.14285714       0.00000000       0.00000000 </v>
   <v>       0.28571429       0.00000000       0.00000000 </v>
   <v>       0.42857143       0.00000000       0.00000000 </v>
   <v>       0.14285714       0.14285714       0.00000000 </v>
   <v>       0.28571429       0.14285714       0.00000000 </v>
   <v>       0.42857143       0.14285714       0.00000000 </v>
   <v>       0.28571429       0.28571429       0.00000000 </v>
  </varray>
  <varray name="weights" >
   <v>       0.02040816 </v>
   <v>       0.12244898 </v>
   <v>       0.12244898 </v>
   <v>       0.12244898 </v>
   <v>       0.12244898 </v>
   <v>       0.24489796 </v>
   <v>       0.12244898 </v>
   <v>       0.12244898 </v>
  </varray>
 </kpoints>
 <parameters>
  <separator name="general" >
   <i type="string" name="SYSTEM">SCF</i>
   <i type="logical" name="LCOMPAT"> F  </i>
  </separator>
  <separator name="electronic" >
   <i type="string" name="PREC">normal</i>
   <i name="ENMAX">    600.00000000</i>
   <i name="ENAUG">    644.87300000</i>
   <i name="EDIFF">      0.00000100</i>
   <i type="int" name="IALGO">    38</i>
   <i type="int" name="IWAVPR">    10</i>
   <i type="int" name="NBANDS">    46</i>
   <i type="int" name="NBANDSLOW">    -1</i>
   <i type="int" name="NBANDSHIGH">    -1</i>
   <i name="NELECT">     72.00000000</i>
   <i type="int" name="TURBO">     0</i>
   <i type="int" name="IRESTART">     0</i>
   <i type="int" name="NREBOOT">     0</i>
   <i type="int" name="NMIN">     0</i>
   <i name="EREF">      0.00000000</i>
   <separator name="electronic smearing" >
    <i type="int" name="ISMEAR">     0</i>
    <i name="SIGMA">      0.05000000</i>
    <i name="KSPACING">      0.50000000</i>
    <i type="logical" name="KGAMMA"> T  </i>
    <i type="logical" name="KBLOWUP"> T  </i>
   </separator>
   <separator name="electronic projectors" >
    <i type="logical" name="LREAL"> T  </i>
    <v name="ROPT">     -0.00050000</v>
    <i type="int" name="LMAXPAW">  -100</i>
    <i type="int" name="LMAXMIX">     2</i>
    <i type="logical" name="NLSPLINE"> F  </i>
   </separator>
   <separator name="electronic startup" >
    <i type="int" name="ISTART">     0</i>
    <i type="int" name="ICHARG">     2</i>
    <i type="int" name="INIWAV">     1</i>
   </separator>
   <separator name="electronic spin" >
    <i type="int" name="ISPIN">     1</i>
    <i type="logical" name="LNONCOLLINEAR"> F  </i>
    <v name="MAGMOM">      1.00000000      1.00000000      1.00000000      1.00000000      1.00000000      1.00000000      1.00000000      1.00000000      1.00000000      1.00000000      1.00000000      1.00000000      1.00000000      1.00000000      1.00000000      1.00000000      1.00000000      1.00000000</v>
    <i name="NUPDOWN">     -1.00000000</i>
    <i type="logical" name="LSORBIT"> F  </i>
    <v name="SAXIS">      0.00000000      0.00000000      1.00000000</v>
    <i type="logical" name="LSPIRAL"> F  </i>
    <v name="QSPIRAL">      0.00000000      0.00000000      0.00000000</v>
    <i type="logical" name="LZEROZ"> F  </i>
   </separator>
   <separator name="electronic exchange-correlation" >
    <i type="logical" name="LASPH"> F  </i>
    <i type="logical" name="LMETAGGA"> F  </i>
   </separator>
   <separator name="electronic convergence" >
    <i type="int" name="NELM">    60</i>
    <i type="int" name="NELMDL">    -5</i>
    <i type="int" name="NELMIN">     6</i>
    <i name="ENINI">    600.00000000</i>
    <separator name="electronic convergence detail" >
     <i type="logical" name="LDIAG"> T  </i>
     <i type="logical" name="LSUBROT"> F  </i>
     <i name="WEIMIN">      0.00000000</i>
     <i name="EBREAK">      0.00000000</i>
     <i name="DEPER">      0.30000000</i>
     <i type="int" name="NRMM">     4</i>
     <i name="TIME">      0.40000000</i>
    </separator>
   </separator>
   <separator name="electronic mixer" >
    <i name="AMIX">      0.40000000</i>
    <i name="BMIX">      1.00000000</i>
    <i name="AMIN">      0.10000000</i>
    <i name="AMIX_MAG">      1.60000000</i>
    <i name="BMIX_MAG">      1.00000000</i>
    <separator name="electronic mixer details" >
     <i type="int" name="IMIX">     4</i>
     <i type="logical" name="MIXFIRST"> F  </i>
     <i type="int" name="MAXMIX">   -45</i>
     <i name="WC">    100.00000000</i>
     <i type="int" name="INIMIX">     1</i>
     <i type="int" name="MIXPRE">     1</i>
     <i type="int" name="MREMOVE">     5</i>
    </separator>
   </separator>
   <separator name="electronic dipolcorrection" >
    <i type="logical" name="LDIPOL"> F  </i>
    <i type="logical" name="LMONO"> F  </i>
    <i type="int" name="IDIPOL">     0</i>
    <i name="EPSILON">      1.00000000</i>
    <v name="DIPOL">   -100.00000000   -100.00000000   -100.00000000</v>
    <i name="EFIELD">      0.00000000</i>
   </separator>
  </separator>
  <separator name="grids" >
   <i type="int" name="NGX">    48</i>
   <i type="int" name="NGY">    48</i>
   <i type="int" name="NGZ">   120</i>
   <i type="int" name="NGXF">    96</i>
   <i type="int" name="NGYF">    96</i>
   <i type="int" name="NGZF">   240</i>
   <i type="logical" name="ADDGRID"> F  </i>
  </separator>
  <separator name="ionic" >
   <i type="int" name="NSW">     0</i>
   <i type="int" name="IBRION">    -1</i>
   <i type="int" name="MDALGO">     0</i>
   <i type="int" name="ISIF">     2</i>
   <i name="PSTRESS">      0.00000000</i>
   <i name="EDIFFG">     -0.00000100</i>
   <i type="int" name="NFREE">     0</i>
   <i name="POTIM">      0.50000000</i>
   <i name="SMASS">     -3.00000000</i>
   <i name="SCALEE">      1.00000000</i>
  </separator>
  <separator name="ionic md" >
   <i name="TEBEG">      0.00010000</i>
   <i name="TEEND">      0.00010000</i>
   <i type="int" name="NBLOCK">     1</i>
   <i type="int" name="KBLOCK">     1</i>
   <i type="int" name="NPACO">   256</i>
   <i name="APACO">     10.00000000</i>
  </separator>
  <separator name="symmetry" >
   <i type="int" name="ISYM">     2</i>
   <i name="SYMPREC">      0.00001000</i>
  </separator>
  <separator name="dos" >
   <i type="int" name="LORBIT">     0</i>
   <v name="RWIGS">     -1.00000000</v>
   <i type="int" name="NEDOS">   301</i>
   <i name="EMIN">     10.00000000</i>
   <i name="EMAX">    -10.00000000</i>
   <i name="EFERMI">      0.00000000</i>
  </separator>
  <separator name="writing" >
   <i type="int" name="NWRITE">     2</i>
   <i type="logical" name="LWAVE"> F  </i>
   <i type="logical" name="LDOWNSAMPLE"> F  </i>
   <i type="logical" name="LCHARG"> F  </i>
   <i type="logical" name="LPARD"> F  </i>
   <i type="logical" name="LVTOT"> F  </i>
   <i type="logical" name="LVHAR"> F  </i>
   <i type="logical" name="LELF"> F  </i>
   <i type="logical" name="LOPTICS"> F  </i>
   <v name="STM">      0.00000000      0.00000000      0.00000000      0.00000000      0.00000000      0.00000000      0.00000000</v>
  </separator>
  <separator name="performance" >
   <i type="int" name="NPAR">     2</i>
   <i type="int" name="NSIM">     4</i>
   <i type="int" name="NBLK">    -1</i>
   <i type="logical" name="LPLANE"> T  </i>
   <i type="logical" name="LSCALAPACK"> T  </i>
   <i type="logical" name="LSCAAWARE"> F  </i>
   <i type="logical" name="LSCALU"> F  </i>
   <i type="logical" name="LASYNC"> F  </i>
   <i type="logical" name="LORBITALREAL"> F  </i>
  </separator>
  <separator name="miscellaneous" >
   <i type="int" name="IDIOT">     3</i>
   <i type="int" name="PHON_NSTRUCT">    -1</i>
   <i type="logical" name="LMUSIC"> F  </i>
   <v name="POMASS">     12.01100000</v>
   <v name="DARWINR">      0.00000000</v>
   <v name="DARWINV">      1.00000000</v>
   <i type="logical" name="LCORR"> T  </i>
  </separator>
  <i type="logical" name="GGA_COMPAT"> T  </i>
  <i type="logical" name="LBERRY"> F  </i>
  <i type="int" name="ICORELEVEL">     0</i>
  <i type="logical" name="LDAU"> F  </i>
  <i type="int" name="I_CONSTRAINED_M">     0</i>
  <separator name="electronic exchange-correlation" >
   <i type="string" name="GGA">--</i>
   <i type="int" name="VOSKOWN">     0</i>
   <i type="logical" name="LHFCALC"> F  </i>
   <i type="string" name="PRECFOCK"></i>
   <i type="logical" name="LSYMGRAD"> F  </i>
   <i type="logical" name="LHFONE"> F  </i>
   <i type="logical" name="LRHFCALC"> F  </i>
   <i type="logical" name="LTHOMAS"> F  </i>
   <i type="logical" name="LMODELHF"> F  </i>
   <i type="logical" name="LFOCKACE"> F  </i>
   <i name="ENCUT4O">     -1.00000000</i>
   <i type="int" name="EXXOEP">     0</i>
   <i type="int" name="FOURORBIT">     0</i>
   <i name="AEXX">      0.00000000</i>
   <i name="HFALPHA">      0.00000000</i>
   <i name="MCALPHA">      0.00000000</i>
   <i name="ALDAX">      1.00000000</i>
   <i name="AGGAX">      1.00000000</i>
   <i name="ALDAC">      1.00000000</i>
   <i name="AGGAC">      1.00000000</i>
   <i type="int" name="NKREDX">     1</i>
   <i type="int" name="NKREDY">     1</i>
   <i type="int" name="NKREDZ">     1</i>
   <i type="logical" name="SHIFTRED"> F  </i>
   <i type="logical" name="ODDONLY"> F  </i>
   <i type="logical" name="EVENONLY"> F  </i>
   <i type="int" name="LMAXFOCK">     0</i>
   <i type="int" name="NMAXFOCKAE">     0</i>
   <i type="logical" name="LFOCKAEDFT"> F  </i>
   <i name="HFSCREEN">      0.00000000</i>
   <i name="HFSCREENC">      0.00000000</i>
   <i type="int" name="NBANDSGWLOW">     0</i>
  </separator>
  <separator name="vdW DFT" >
   <i type="logical" name="LUSE_VDW"> F  </i>
   <i type="int" name="IVDW_NL">     1</i>
   <i type="logical" name="LSPIN_VDW"> F  </i>
   <i name="Zab_VDW">     -0.84910000</i>
   <i name="PARAM1">      0.12340000</i>
   <i name="PARAM2">      1.00000000</i>
   <i name="PARAM3">      0.00000000</i>
  </separator>
  <separator name="model GW" >
   <i type="int" name="MODEL_GW">     0</i>
   <i name="MODEL_EPS0">     31.63027863</i>
   <i name="MODEL_ALPHA">      1.00000000</i>
  </separator>
  <separator name="linear response parameters" >
   <i type="logical" name="LEPSILON"> F  </i>
   <i type="logical" name="LRPA"> F  </i>
   <i type="logical" name="LNABLA"> F  </i>
   <i type="logical" name="LVEL"> F  </i>
   <i name="CSHIFT">      0.10000000</i>
   <i name="OMEGAMAX">     -1.00000000</i>
   <i name="DEG_THRESHOLD">      0.00200000</i>
   <i name="RTIME">     -0.10000000</i>
   <i name="WPLASMAI">      0.00000000</i>
   <v name="DFIELD">      0.00000000      0.00000000      0.00000000</v>
   <v name="WPLASMA">      0.00000000      0.00000000      0.00000000      0.00000000      0.00000000      0.00000000      0.00000000      0.00000000      0.00000000</v>
  </separator>
  <separator name="orbital magnetization" >
   <i type="logical" name="NUCIND"> F  </i>
   <v name="MAGPOS">      0.00000000      0.00000000      0.00000000</v>
   <i type="logical" name="LNICSALL"> T  </i>
   <i type="logical" name="ORBITALMAG"> F  </i>
   <i type="logical" name="LMAGBLOCH"> F  </i>
   <i type="logical" name="LCHIMAG"> F  </i>
   <i type="logical" name="LGAUGE"> T  </i>
   <i type="int" name="MAGATOM">     0</i>
   <v name="MAGDIPOL">      0.00000000      0.00000000      0.00000000</v>
   <v name="AVECCONST">      0.00000000      0.00000000      0.00000000</v>
  </separator>
  <separator name="response functions" >
   <i type="logical" name="LALL_IN_ONE"> F  </i>
   <i type="int" name="IALL_IN_ONE">    -1</i>
   <i type="int" name="NBANDS_WAVE">    -1</i>
   <i type="logical" name="LFINITE_TEMPERATURE"> F  </i>
   <i type="logical" name="LADDER"> F  </i>
   <i type="logical" name="LRPAFORCE"> F  </i>
   <i type="logical" name="LFXC"> F  </i>
   <i type="logical" name="LHARTREE"> T  </i>
   <i type="int" name="IBSE">     0</i>
   <v type="int" name="KPOINT">    -1     0     0     0</v>
   <i type="logical" name="LTCTC"> F  </i>
   <i type="logical" name="LTCTE"> F  </i>
   <i type="logical" name="LTETE"> F  </i>
   <i type="logical" name="LTRIPLET"> F  </i>
   <i type="logical" name="LFXCEPS"> F  </i>
   <i type="logical" name="LFXHEG"> F  </i>
   <i type="int" name="NATURALO">     2</i>
   <i type="logical" name="LHOLEGF"> F  </i>
   <i type="logical" name="L2ORDER"> F  </i>
   <i type="logical" name="LDMP1"> F  </i>
   <i type="logical" name="LMP2LT"> F  </i>
   <i type="logical" name="LSMP2LT"> F  </i>
   <i type="logical" name="LGWLF"> F  </i>
   <i name="ENCUTGW">     -1.60000002</i>
   <i name="ENCUTGWSOFT">     -1.60000002</i>
   <i name="ENCUTLF">     -1.00000000</i>
   <i type="logical" name="LESF_SPLINES"> F  </i>
   <i type="int" name="LMAXMP2">    -1</i>
   <i name="SCISSOR">      0.00000000</i>
   <i type="int" name="NOMEGA">     0</i>
   <i type="int" name="NOMEGAR">     0</i>
   <i type="int" name="NBANDSGW">    -1</i>
   <i type="int" name="NBANDSO">    -1</i>
   <i type="int" name="NBANDSV">    -1</i>
   <i type="int" name="NELMGW">     1</i>
   <i type="int" name="NELMHF">     1</i>
   <i type="int" name="DIM">     3</i>
   <i type="int" name="IESPILON">     4</i>
   <i type="int" name="ANTIRES">     0</i>
   <i name="OMEGAMAX">    -30.00000000</i>
   <i name="OMEGAMIN">    -30.00000000</i>
   <i name="OMEGATL">   -200.00000000</i>
   <i type="int" name="OMEGAGRID">     0</i>
   <i name="CSHIFT">     -0.10000000</i>
   <i type="logical" name="LSELFENERGY"> F  </i>
   <i type="logical" name="LSPECTRAL"> F  </i>
   <i type="logical" name="LSPECTRALGW"> F  </i>
   <i type="logical" name="LSINGLES"> F  </i>
   <i type="logical" name="LFERMIGW"> F  </i>
   <i type="logical" name="ODDONLYGW"> F  </i>
   <i type="logical" name="EVENONLYGW"> F  </i>
   <i type="int" name="NKREDLFX">     1</i>
   <i type="int" name="NKREDLFY">     1</i>
   <i type="int" name="NKREDLFZ">     1</i>
   <i type="int" name="MAXMEM">  2800</i>
   <i type="int" name="TELESCOPE">     0</i>
   <i type="int" name="NTAUPAR">    -1</i>
   <i type="int" name="NOMEGAPAR">    -1</i>
   <i name="DAMP_NEWTON">      0.80000001</i>
   <i name="LAMBDA">      1.00000000</i>
  </separator>
  <separator name="External order field" >
   <i name="OFIELD_KAPPA">      0.00000000</i>
   <v name="OFIELD_K">      0.00000000      0.00000000      0.00000000</v>
   <i name="OFIELD_Q6_NEAR">      0.00000000</i>
   <i name="OFIELD_Q6_FAR">      0.00000000</i>
   <i name="OFIELD_A">      0.00000000</i>
  </separator>
  <separator name="optional k-points parameters" >
   <i type="int" name="KPOINTS_OPT_MODE">     1</i>
   <i type="logical" name="LKPOINTS_OPT"> F  </i>
  </separator>
 </parameters>
 <atominfo>
  <atoms>      18 </atoms>
  <types>       1 </types>
  <array name="atoms" >
   <dimension dim="1">ion</dimension>
   <field type="string">element</field>
   <field type="int">atomtype</field>
   <set>
    <rc><c>C </c><c>   1</c></rc>
    <rc><c>C </c><c>   1</c></rc>
    <rc><c>C </c><c>   1</c></rc>
    <rc><c>C </c><c>   1</c></rc>
    <rc><c>C </c><c>   1</c></rc>
    <rc><c>C </c><c>   1</c></rc>
    <rc><c>C </c><c>   1</c></rc>
    <rc><c>C </c><c>   1</c></rc>
    <rc><c>C </c><c>   1</c></rc>
    <rc><c>C </c><c>   1</c></rc>
    <rc><c>C </c><c>   1</c></rc>
    <rc><c>C </c><c>   1</c></rc>
    <rc><c>C </c><c>   1</c></rc>
    <rc><c>C </c><c>   1</c></rc>
    <rc><c>C </c><c>   1</c></rc>
    <rc><c>C </c><c>   1</c></rc>
    <rc><c>C </c><c>   1</c></rc>
    <rc><c>C </c><c>   1</c></rc>
   </set>
  </array>
  <array name="atomtypes" >
   <dimension dim="1">type</dimension>
   <field type="int">atomspertype</field>
   <field type="string">element</field>
   <field>mass</field>
   <field>valence</field>
   <field type="string">pseudopotential</field>
   <set>
    <rc><c>  18</c><c>C </c><c>     12.01100000</c><c>      4.00000000</c><c>  PAW_PBE C 08Apr2002                   </c></rc>
   </set>
  </array>
 </atominfo>
 <structure name="initialpos" >
  <crystal>
   <varray name="basis" >
    <v>       7.40170591       0.00000000       0.00000000 </v>
    <v>      -3.70085295       6.41006527       0.00000000 </v>
    <v>       0.00000000       0.00000000      20.00000000 </v>
   </varray>
   <i name="volume">    948.90835877 </i>
   <varray name="rec_basis" >
    <v>       0.13510399       0.07800233       0.00000000 </v>
    <v>       0.00000000       0.15600465       0.00000000 </v>
    <v>       0.00000000       0.00000000       0.05000000 </v>
   </varray>
  </crystal>
  <varray name="positions" >
   <v>       0.00000000       0.00000000       0.49900000 </v>
   <v>       0.33333333       0.00000000       0.50000000 </v>
   <v>       0.66666667       0.00000000       0.50000000 </v>
   <v>       0.00000000       0.33333333       0.50000000 </v>
   <v>       0.33333333       0.33333333       0.50000000 </v>
   <v>       0.66666667       0.33333333       0.50000000 </v>
   <v>       0.00000000       0.66666667       0.50000000 </v>
   <v>       0.33333333       0.66666667       0.50000000 </v>
   <v>       0.66666667       0.66666667       0.50000000 </v>
   <v>       0.22222222       0.11111111       0.50000000 </v>
   <v>       0.55555556       0.11111111       0.50000000 </v>
   <v>       0.88888889       0.11111111       0.50000000 </v>
   <v>       0.22222222       0.44444444       0.50000000 </v>
   <v>       0.55555556       0.44444444       0.50000000 </v>
   <v>       0.88888889       0.44444444       0.50000000 </v>
   <v>       0.22222222       0.77777778       0.50000000 </v>
   <v>       0.55555556       0.77777778       0.50000000 </v>
   <v>       0.88888889       0.77777778       0.50000000 </v>
  </varray>
 </structure>
 <calculation>
  <scstep>
   <time name="dav">    1.87    0.76</time>
   <time name="total">    1.96    0.85</time>
   <energy>
    <i name="alphaZ">     28.04858418 </i>
    <i name="ewald">  11638.75770895 </i>
    <i name="hartreedc"> -13553.09650572 </i>
    <i name="XCdc">    237.17636791 </i>
    <i name="pawpsdc">   1953.39683484 </i>
    <i name="pawaedc">  -1963.64613940 </i>
    <i name="eentropy">     -0.00779844 </i>
    <i name="bandstr">   -242.75265723 </i>
    <i name="atom">   2648.70517965 </i>
    <i name="e_fr_energy">    746.58157475 </i>
    <i name="e_wo_entrp">    746.58937318 </i>
    <i name="e_0_energy">    746.58547397 </i>
   </energy>
  </scstep>
  <scstep>
   <time name="dav">    2.56    2.66</time>
   <time name="total">    2.56    2.66</time>
   <energy>
    <i name="e_fr_energy">    -20.14827253 </i>
    <i name="e_wo_entrp">    -20.14827231 </i>
    <i name="e_0_energy">    -20.14827242 </i>
   </energy>
  </scstep>
  <scstep>
   <time name="dav">    2.02    2.09</time>
   <time name="total">    2.02    2.09</time>
   <energy>
    <i name="e_fr_energy">   -172.08930310 </i>
    <i name="e_wo_entrp">   -172.08800208 </i>
    <i name="e_0_energy">   -172.08865259 </i>
   </energy>
  </scstep>
  <scstep>
   <time name="dav">    2.06    2.14</time>
   <time name="total">    2.06    2.14</time>
   <energy>
    <i name="e_fr_energy">   -177.34090475 </i>
    <i name="e_wo_entrp">   -177.33861218 </i>
    <i name="e_0_energy">   -177.33975847 </i>
   </energy>
  </scstep>
  <scstep>
   <time name="dav">    2.26    2.35</time>
   <time name="total">    2.36    2.45</time>
   <energy>
    <i name="e_fr_energy">   -177.48397760 </i>
    <i name="e_wo_entrp">   -177.48167480 </i>
    <i name="e_0_energy">   -177.48282620 </i>
   </energy>
  </scstep>
  <scstep>
   <time name="dav">    1.93    2.01</time>
   <time name="total">    2.11    2.19</time>
   <energy>
    <i name="e_fr_energy">   -169.32027298 </i>
    <i name="e_wo_entrp">   -169.31797022 </i>
    <i name="e_0_energy">   -169.31912160 </i>
   </energy>
  </scstep>
  <scstep>
   <time name="dav">    1.88    1.95</time>
   <time name="total">    2.07    2.15</time>
   <energy>
    <i name="e_fr_energy">   -166.15083072 </i>
    <i name="e_wo_entrp">   -166.14852797 </i>
    <i name="e_0_energy">   -166.14967935 </i>
   </energy>
  </scstep>
  <scstep>
   <time name="dav">    1.91    1.98</time>
   <time name="total">    2.09    2.17</time>
   <energy>
    <i name="e_fr_energy">   -166.08813767 </i>
    <i name="e_wo_entrp">   -166.08583490 </i>
    <i name="e_0_energy">   -166.08698629 </i>
   </energy>
  </scstep>
  <scstep>
   <time name="dav">    2.16    2.24</time>
   <time name="total">    2.34    2.43</time>
   <energy>
    <i name="e_fr_energy">   -166.07536702 </i>
    <i name="e_wo_entrp">   -166.07306426 </i>
    <i name="e_0_energy">   -166.07421564 </i>
   </energy>
  </scstep>
  <scstep>
   <time name="dav">    1.85    1.92</time>
   <time name="total">    2.04    2.12</time>
   <energy>
    <i name="e_fr_energy">   -166.05718215 </i>
    <i name="e_wo_entrp">   -166.05487937 </i>
    <i name="e_0_energy">   -166.05603076 </i>
   </energy>
  </scstep>
  <scstep>
   <time name="dav">    1.86    1.93</time>
   <time name="total">    2.04    2.11</time>
   <energy>
    <i name="e_fr_energy">   -166.06094355 </i>
    <i name="e_wo_entrp">   -166.05864079 </i>
    <i name="e_0_energy">   -166.05979217 </i>
   </energy>
  </scstep>
  <scstep>
   <time name="dav">    1.79    1.86</time>
   <time name="total">    1.97    2.05</time>
   <energy>
    <i name="e_fr_energy">   -166.06616033 </i>
    <i name="e_wo_entrp">   -166.06385757 </i>
    <i name="e_0_energy">   -166.06500895 </i>
   </energy>
  </scstep>
  <scstep>
   <time name="dav">    2.00    2.08</time>
   <time name="total">    2.18    2.26</time>
   <energy>
    <i name="e_fr_energy">   -166.06975194 </i>
    <i name="e_wo_entrp">   -166.06744917 </i>
    <i name="e_0_energy">   -166.06860055 </i>
   </energy>
  </scstep>
  <scstep>
   <time name="dav">    1.80    1.87</time>
   <time name="total">    1.98    2.06</time>
   <energy>
    <i name="e_fr_energy">   -166.07401084 </i>
    <i name="e_wo_entrp">   -166.07170808 </i>
    <i name="e_0_energy">   -166.07285946 </i>
   </energy>
  </scstep>
  <scstep>
   <time name="dav">    1.95    2.02</time>
   <time name="total">    2.13    2.21</time>
   <energy>
    <i name="e_fr_energy">   -166.07468351 </i>
    <i name="e_wo_entrp">   -166.07238074 </i>
    <i name="e_0_energy">   -166.07353213 </i>
   </energy>
  </scstep>
  <scstep>
   <time name="dav">    1.84    1.91</time>
   <time name="total">    2.02    0.90</time>
   <energy>
    <i name="e_fr_energy">   -166.07492244 </i>
    <i name="e_wo_entrp">   -166.07261968 </i>
    <i name="e_0_energy">   -166.07377106 </i>
   </energy>
  </scstep>
  <scstep>
   <time name="dav">    1.66    1.72</time>
   <time name="total">    1.84    1.91</time>
   <energy>
    <i name="e_fr_energy">   -166.07498244 </i>
    <i name="e_wo_entrp">   -166.07267967 </i>
    <i name="e_0_energy">   -166.07383105 </i>
   </energy>
  </scstep>
  <scstep>
   <time name="dav">    1.70    1.76</time>
   <time name="total">    1.88    1.95</time>
   <energy>
    <i name="e_fr_energy">   -166.07502295 </i>
    <i name="e_wo_entrp">   -166.07272018 </i>
    <i name="e_0_energy">   -166.07387157 </i>
   </energy>
  </scstep>
  <scstep>
   <time name="dav">    1.69    1.75</time>
   <time name="total">    1.87    1.94</time>
   <energy>
    <i name="e_fr_energy">   -166.07505091 </i>
    <i name="e_wo_entrp">   -166.07274814 </i>
    <i name="e_0_energy">   -166.07389953 </i>
   </energy>
  </scstep>
  <scstep>
   <time name="dav">    1.35    1.40</time>
   <time name="total">    1.53    1.59</time>
   <energy>
    <i name="e_fr_energy">   -166.07506677 </i>
    <i name="e_wo_entrp">   -166.07276400 </i>
    <i name="e_0_energy">   -166.07391539 </i>
   </energy>
  </scstep>
  <scstep>
   <time name="dav">    1.31    1.37</time>
   <time name="total">    1.49    1.55</time>
   <energy>
    <i name="e_fr_energy">   -166.07507121 </i>
    <i name="e_wo_entrp">   -166.07276844 </i>
    <i name="e_0_energy">   -166.07391983 </i>
   </energy>
  </scstep>
  <scstep>
   <time name="dav">    1.35    1.40</time>
   <time name="total">    1.43    1.48</time>
   <energy>
    <i name="alphaZ">     28.04858418 </i>
    <i name="ewald">  11638.75770895 </i>
    <i name="hartreedc"> -13861.41870666 </i>
    <i name="XCdc">    247.81233019 </i>
    <i name="pawpsdc">   7452.36664185 </i>
    <i name="pawaedc">  -7464.62980087 </i>
    <i name="eentropy">     -0.00230277 </i>
    <i name="bandstr">   -855.71470629 </i>
    <i name="atom">   2648.70517965 </i>
    <i name="e_fr_energy">   -166.07507177 </i>
    <i name="e_wo_entrp">   -166.07276900 </i>
    <i name="e_0_energy">   -166.07392038 </i>
   </energy>
  </scstep>
  <structure>
   <crystal>
    <varray name="basis" >
     <v>       7.40170591       0.00000000       0.00000000 </v>
     <v>      -3.70085295       6.41006527       0.00000000 </v>
     <v>       0.00000000       0.00000000      20.00000000 </v>
    </varray>
    <i name="volume">    948.90835877 </i>
    <varray name="rec_basis" >
     <v>       0.13510399       0.07800233       0.00000000 </v>
     <v>       0.00000000       0.15600465       0.00000000 </v>
     <v>       0.00000000       0.00000000       0.05000000 </v>
    </varray>
   </crystal>
   <varray name="positions" >
    <v>       0.00000000       0.00000000       0.49900000 </v>
    <v>       0.33333333       0.00000000       0.50000000 </v>
    <v>       0.66666667       0.00000000       0.50000000 </v>
    <v>       0.00000000       0.33333333       0.50000000 </v>
    <v>       0.33333333       0.33333333       0.50000000 </v>
    <v>       0.66666667       0.33333333       0.50000000 </v>
    <v>       0.00000000       0.66666667       0.50000000 </v>
    <v>       0.33333333       0.66666667       0.50000000 </v>
    <v>       0.66666667       0.66666667       0.50000000 </v>
    <v>       0.22222222       0.11111111       0.50000000 </v>
    <v>       0.55555556       0.11111111       0.50000000 </v>
    <v>       0.88888889       0.11111111       0.50000000 </v>
    <v>       0.22222222       0.44444444       0.50000000 </v>
    <v>       0.55555556       0.44444444       0.50000000 </v>
    <v>       0.88888889       0.44444444       0.50000000 </v>
    <v>       0.22222222       0.77777778       0.50000000 </v>
    <v>       0.55555556       0.77777778       0.50000000 </v>
    <v>       0.88888889       0.77777778       0.50000000 </v>
   </varray>
  </structure>
  <varray name="forces" >
   <v>      -0.00000000       0.00000000       0.28583096 </v>
   <v>       0.00004800       0.00013359       0.00969661 </v>
   <v>      -0.00004800       0.00013359       0.00969661 </v>
   <v>      -0.00013969      -0.00002523       0.00969661 </v>
   <v>       0.00013969      -0.00002523       0.00969661 </v>
   <v>      -0.00000000       0.00000000      -0.00424098 </v>
   <v>      -0.00009169      -0.00010836       0.00969661 </v>
   <v>      -0.00000000       0.00000000      -0.00424217 </v>
   <v>       0.00009169      -0.00010836       0.00969661 </v>
   <v>      -0.00225859      -0.00130400      -0.12336682 </v>
   <v>      -0.00000000       0.00005790       0.01823244 </v>
   <v>       0.00225859      -0.00130400      -0.12336682 </v>
   <v>      -0.00000000       0.00007090      -0.00670811 </v>
   <v>       0.00005015      -0.00002895       0.01823244 </v>
   <v>      -0.00005015      -0.00002895       0.01823244 </v>
   <v>       0.00006140      -0.00003545      -0.00670811 </v>
   <v>      -0.00006140      -0.00003545      -0.00670811 </v>
   <v>       0.00000000       0.00260800      -0.12336682 </v>
  </varray>
  <varray name="stress" >
   <v>      -0.17757213      -0.00000000      -0.00000000 </v>
   <v>      -0.00000000      -0.17757212      -0.00000000 </v>
   <v>      -0.00000000       0.00000000      -0.58759003 </v>
  </varray>
  <energy>
   <i name="e_fr_energy">   -166.07507177 </i>
   <i name="e_wo_entrp">   -166.07276900 </i>
   <i name="e_0_energy">   -166.07392038 </i>
  </energy>
  <time name="totalsc">   45.78   45.15</time>
  <eigenvalues>
   <array>
    <dimension dim="1">band</dimension>
    <dimension dim="2">kpoint</dimension>
    <dimension dim="3">spin</dimension>
    <field>eigene</field>
    <field>occ</field>
    <set>
     <set comment="spin 1">
      <set comment="kpoint 1">
       <r>  -22.2557    1.0000 </r>
       <r>  -19.6734    1.0000 </r>
       <r>  -19.6734    1.0000 </r>
       <r>  -19.6733    1.0000 </r>
       <r>  -19.6732    1.0000 </r>
       <r>  -19.6732    1.0000 </r>
       <r>  -19.6727    1.0000 </r>
       <r>  -15.3407    1.0000 </r>
       <r>  -15.3406    1.0000 </r>
       <r>  -15.3406    1.0000 </r>
       <r>  -15.3405    1.0000 </r>
       <r>  -13.2894    1.0000 </r>
       <r>  -13.2894    1.0000 </r>
       <r>  -12.3747    1.0000 </r>
       <r>  -12.3747    1.0000 </r>
       <r>  -12.3747    1.0000 </r>
       <r>  -12.3747    1.0000 </r>
       <r>  -12.3742    1.0000 </r>
       <r>  -12.3742    1.0000 </r>
       <r>  -10.3597    1.0000 </r>
       <r>   -8.5236    1.0000 </r>
       <r>   -8.5236    1.0000 </r>
       <r>   -8.5236    1.0000 </r>
       <r>   -8.5236    1.0000 </r>
       <r>   -8.5234    1.0000 </r>
       <r>   -8.5234    1.0000 </r>
       <r>   -7.3709    1.0000 </r>
       <r>   -7.3709    1.0000 </r>
       <r>   -7.3709    1.0000 </r>
       <r>   -7.3704    1.0000 </r>
       <r>   -7.3704    1.0000 </r>
       <r>   -7.3704    1.0000 </r>
       <r>   -5.7843    1.0000 </r>
       <r>   -5.7843    1.0000 </r>
       <r>   -2.7557    0.5044 </r>
       <r>   -2.7553    0.4990 </r>
       <r>   -2.7552    0.4983 </r>
       <r>   -2.7552    0.4983 </r>
       <r>    0.5193    0.0000 </r>
       <r>    1.3120    0.0000 </r>
       <r>    1.6352    0.0000 </r>
       <r>    2.1405    0.0000 </r>
       <r>    2.1438    0.0000 </r>
       <r>    2.1440    0.0000 </r>
       <r>    2.1442    0.0000 </r>
       <r>    2.1442    0.0000 </r>
      </set>
      <set comment="kpoint 2">
       <r>  -22.2022    1.0000 </r>
       <r>  -20.3488    1.0000 </r>
       <r>  -19.9841    1.0000 </r>
       <r>  -19.9840    1.0000 </r>
       <r>  -19.2624    1.0000 </r>
       <r>  -19.2622    1.0000 </r>
       <r>  -18.9060    1.0000 </r>
       <r>  -15.9952    1.0000 </r>
       <r>  -15.9950    1.0000 </r>
       <r>  -14.9131    1.0000 </r>
       <r>  -14.9131    1.0000 </r>
       <r>  -13.5974    1.0000 </r>
       <r>  -12.9701    1.0000 </r>
       <r>  -12.9699    1.0000 </r>
       <r>  -12.9561    1.0000 </r>
       <r>  -12.9561    1.0000 </r>
       <r>  -11.7351    1.0000 </r>
       <r>  -11.7349    1.0000 </r>
       <r>  -11.1176    1.0000 </r>
       <r>  -10.2957    1.0000 </r>
       <r>   -8.8634    1.0000 </r>
       <r>   -8.8633    1.0000 </r>
       <r>   -8.8291    1.0000 </r>
       <r>   -8.5097    1.0000 </r>
       <r>   -8.5096    1.0000 </r>
       <r>   -8.1320    1.0000 </r>
       <r>   -8.1265    1.0000 </r>
       <r>   -7.7132    1.0000 </r>
       <r>   -7.7130    1.0000 </r>
       <r>   -6.9227    1.0000 </r>
       <r>   -6.9226    1.0000 </r>
       <r>   -6.5570    1.0000 </r>
       <r>   -6.0044    1.0000 </r>
       <r>   -5.9000    1.0000 </r>
       <r>   -3.5267    1.0000 </r>
       <r>   -3.5266    1.0000 </r>
       <r>   -2.0050    0.0000 </r>
       <r>   -2.0046    0.0000 </r>
       <r>    0.5916    0.0000 </r>
       <r>    0.8747    0.0000 </r>
       <r>    1.3856    0.0000 </r>
       <r>    1.4728    0.0000 </r>
       <r>    1.4737    0.0000 </r>
       <r>    1.7098    0.0000 </r>
       <r>    2.6298    0.0000 </r>
       <r>    2.7589    0.0000 </r>
      </set>
      <set comment="kpoint 3">
       <r>  -22.0416    1.0000 </r>
       <r>  -20.9264    1.0000 </r>
       <r>  -20.1926    1.0000 </r>
       <r>  -20.1924    1.0000 </r>
       <r>  -18.7553    1.0000 </r>
       <r>  -18.7551    1.0000 </r>
       <r>  -18.0628    1.0000 </r>
       <r>  -16.7451    1.0000 </r>
       <r>  -16.7449    1.0000 </r>
       <r>  -14.7529    1.0000 </r>
       <r>  -14.6243    1.0000 </r>
       <r>  -14.6242    1.0000 </r>
       <r>  -13.4993    1.0000 </r>
       <r>  -13.4992    1.0000 </r>
       <r>  -12.1837    1.0000 </r>
       <r>  -12.1835    1.0000 </r>
       <r>  -11.0980    1.0000 </r>
       <r>  -11.0978    1.0000 </r>
       <r>  -10.1046    1.0000 </r>
       <r>   -9.8598    1.0000 </r>
       <r>   -9.4951    1.0000 </r>
       <r>   -9.4950    1.0000 </r>
       <r>   -9.0380    1.0000 </r>
       <r>   -8.7945    1.0000 </r>
       <r>   -8.7612    1.0000 </r>
       <r>   -8.7579    1.0000 </r>
       <r>   -7.9450    1.0000 </r>
       <r>   -7.9445    1.0000 </r>
       <r>   -7.6708    1.0000 </r>
       <r>   -6.6227    1.0000 </r>
       <r>   -6.3782    1.0000 </r>
       <r>   -6.3771    1.0000 </r>
       <r>   -6.2160    1.0000 </r>
       <r>   -5.7647    1.0000 </r>
       <r>   -4.2989    1.0000 </r>
       <r>   -4.2989    1.0000 </r>
       <r>   -1.2833    0.0000 </r>
       <r>   -1.2828    0.0000 </r>
       <r>   -0.2384    0.0000 </r>
       <r>    0.7804    0.0000 </r>
       <r>    0.7877    0.0000 </r>
       <r>    0.8167    0.0000 </r>
       <r>    1.6064    0.0000 </r>
       <r>    1.9331    0.0000 </r>
       <r>    2.3339    0.0000 </r>
       <r>    2.8511    0.0000 </r>
      </set>
      <set comment="kpoint 4">
       <r>  -21.7748    1.0000 </r>
       <r>  -21.4025    1.0000 </r>
       <r>  -20.2972    1.0000 </r>
       <r>  -20.2970    1.0000 </r>
       <r>  -18.1581    1.0000 </r>
       <r>  -18.1579    1.0000 </r>
       <r>  -17.4813    1.0000 </r>
       <r>  -17.4811    1.0000 </r>
       <r>  -17.2288    1.0000 </r>
       <r>  -15.7455    1.0000 </r>
       <r>  -14.3221    1.0000 </r>
       <r>  -14.3219    1.0000 </r>
       <r>  -13.9510    1.0000 </r>
       <r>  -13.9508    1.0000 </r>
       <r>  -11.2585    1.0000 </r>
       <r>  -11.2583    1.0000 </r>
       <r>  -10.5973    1.0000 </r>
       <r>  -10.5970    1.0000 </r>
       <r>  -10.3277    1.0000 </r>
       <r>  -10.3276    1.0000 </r>
       <r>   -9.7875    1.0000 </r>
       <r>   -9.3484    1.0000 </r>
       <r>   -9.1438    1.0000 </r>
       <r>   -9.0903    1.0000 </r>
       <r>   -9.0898    1.0000 </r>
       <r>   -8.6461    1.0000 </r>
       <r>   -8.0612    1.0000 </r>
       <r>   -8.0609    1.0000 </r>
       <r>   -7.5383    1.0000 </r>
       <r>   -7.1686    1.0000 </r>
       <r>   -6.6644    1.0000 </r>
       <r>   -5.7468    1.0000 </r>
       <r>   -5.7468    1.0000 </r>
       <r>   -5.1980    1.0000 </r>
       <r>   -5.0472    1.0000 </r>
       <r>   -5.0471    1.0000 </r>
       <r>   -0.9703    0.0000 </r>
       <r>   -0.5855    0.0000 </r>
       <r>   -0.5848    0.0000 </r>
       <r>    0.1009    0.0000 </r>
       <r>    0.1018    0.0000 </r>
       <r>    1.1736    0.0000 </r>
       <r>    1.6817    0.0000 </r>
       <r>    1.9738    0.0000 </r>
       <r>    2.3055    0.0000 </r>
       <r>    2.4867    0.0000 </r>
      </set>
      <set comment="kpoint 5">
       <r>  -22.0951    1.0000 </r>
       <r>  -20.6109    1.0000 </r>
       <r>  -20.6107    1.0000 </r>
       <r>  -19.5193    1.0000 </r>
       <r>  -19.5192    1.0000 </r>
       <r>  -18.4549    1.0000 </r>
       <r>  -18.4546    1.0000 </r>
       <r>  -16.7785    1.0000 </r>
       <r>  -16.1616    1.0000 </r>
       <r>  -15.2402    1.0000 </r>
       <r>  -14.2549    1.0000 </r>
       <r>  -14.1585    1.0000 </r>
       <r>  -14.1583    1.0000 </r>
       <r>  -12.6044    1.0000 </r>
       <r>  -12.3071    1.0000 </r>
       <r>  -12.3068    1.0000 </r>
       <r>  -12.2710    1.0000 </r>
       <r>  -10.4864    1.0000 </r>
       <r>  -10.4863    1.0000 </r>
       <r>  -10.1679    1.0000 </r>
       <r>   -9.1765    1.0000 </r>
       <r>   -9.1763    1.0000 </r>
       <r>   -9.1236    1.0000 </r>
       <r>   -9.1235    1.0000 </r>
       <r>   -8.4261    1.0000 </r>
       <r>   -8.4257    1.0000 </r>
       <r>   -8.0745    1.0000 </r>
       <r>   -8.0745    1.0000 </r>
       <r>   -7.1907    1.0000 </r>
       <r>   -7.1906    1.0000 </r>
       <r>   -6.4088    1.0000 </r>
       <r>   -6.1330    1.0000 </r>
       <r>   -6.1037    1.0000 </r>
       <r>   -6.1029    1.0000 </r>
       <r>   -4.2578    1.0000 </r>
       <r>   -3.8994    1.0000 </r>
       <r>   -1.7107    0.0000 </r>
       <r>   -1.2654    0.0000 </r>
       <r>    0.2718    0.0000 </r>
       <r>    0.2730    0.0000 </r>
       <r>    0.7378    0.0000 </r>
       <r>    1.5328    0.0000 </r>
       <r>    1.8585    0.0000 </r>
       <r>    2.0103    0.0000 </r>
       <r>    2.0116    0.0000 </r>
       <r>    2.7773    0.0000 </r>
      </set>
      <set comment="kpoint 6">
       <r>  -21.8814    1.0000 </r>
       <r>  -21.1377    1.0000 </r>
       <r>  -20.7686    1.0000 </r>
       <r>  -19.6742    1.0000 </r>
       <r>  -18.9579    1.0000 </r>
       <r>  -17.9165    1.0000 </r>
       <r>  -17.5934    1.0000 </r>
       <r>  -17.5728    1.0000 </r>
       <r>  -16.6710    1.0000 </r>
       <r>  -15.2536    1.0000 </r>
       <r>  -15.2499    1.0000 </r>
       <r>  -14.6348    1.0000 </r>
       <r>  -13.7272    1.0000 </r>
       <r>  -12.8209    1.0000 </r>
       <r>  -11.8985    1.0000 </r>
       <r>  -11.6825    1.0000 </r>
       <r>  -11.3887    1.0000 </r>
       <r>  -10.0393    1.0000 </r>
       <r>   -9.9217    1.0000 </r>
       <r>   -9.9088    1.0000 </r>
       <r>   -9.7107    1.0000 </r>
       <r>   -9.6301    1.0000 </r>
       <r>   -9.2824    1.0000 </r>
       <r>   -9.2644    1.0000 </r>
       <r>   -9.0372    1.0000 </r>
       <r>   -8.6066    1.0000 </r>
       <r>   -8.2587    1.0000 </r>
       <r>   -7.5791    1.0000 </r>
       <r>   -7.3538    1.0000 </r>
       <r>   -7.1428    1.0000 </r>
       <r>   -6.5707    1.0000 </r>
       <r>   -6.5434    1.0000 </r>
       <r>   -5.5813    1.0000 </r>
       <r>   -5.3854    1.0000 </r>
       <r>   -5.0741    1.0000 </r>
       <r>   -4.4328    1.0000 </r>
       <r>   -1.2968    0.0000 </r>
       <r>   -0.6855    0.0000 </r>
       <r>   -0.4253    0.0000 </r>
       <r>   -0.2988    0.0000 </r>
       <r>    1.0278    0.0000 </r>
       <r>    1.2241    0.0000 </r>
       <r>    1.8269    0.0000 </r>
       <r>    2.0445    0.0000 </r>
       <r>    2.1566    0.0000 </r>
       <r>    2.4019    0.0000 </r>
      </set>
      <set comment="kpoint 7">
       <r>  -21.5620    1.0000 </r>
       <r>  -21.5617    1.0000 </r>
       <r>  -20.8213    1.0000 </r>
       <r>  -19.7260    1.0000 </r>
       <r>  -18.3059    1.0000 </r>
       <r>  -18.3058    1.0000 </r>
       <r>  -17.3074    1.0000 </r>
       <r>  -17.3073    1.0000 </r>
       <r>  -16.9869    1.0000 </r>
       <r>  -15.9389    1.0000 </r>
       <r>  -15.0096    1.0000 </r>
       <r>  -15.0094    1.0000 </r>
       <r>  -13.2819    1.0000 </r>
       <r>  -13.2817    1.0000 </r>
       <r>  -11.3579    1.0000 </r>
       <r>  -10.9878    1.0000 </r>
       <r>  -10.9875    1.0000 </r>
       <r>  -10.4999    1.0000 </r>
       <r>  -10.4997    1.0000 </r>
       <r>   -9.9053    1.0000 </r>
       <r>   -9.6355    1.0000 </r>
       <r>   -9.5358    1.0000 </r>
       <r>   -9.5350    1.0000 </r>
       <r>   -9.3359    1.0000 </r>
       <r>   -8.6671    1.0000 </r>
       <r>   -8.4184    1.0000 </r>
       <r>   -8.1249    1.0000 </r>
       <r>   -8.1246    1.0000 </r>
       <r>   -7.4093    1.0000 </r>
       <r>   -7.0535    1.0000 </r>
       <r>   -7.0527    1.0000 </r>
       <r>   -5.8556    1.0000 </r>
       <r>   -5.8554    1.0000 </r>
       <r>   -5.0628    1.0000 </r>
       <r>   -5.0124    1.0000 </r>
       <r>   -5.0123    1.0000 </r>
       <r>   -1.0895    0.0000 </r>
       <r>   -0.8238    0.0000 </r>
       <r>   -0.8232    0.0000 </r>
       <r>    0.4095    0.0000 </r>
       <r>    0.4105    0.0000 </r>
       <r>    1.4641    0.0000 </r>
       <r>    1.4642    0.0000 </r>
       <r>    2.2672    0.0000 </r>
       <r>    2.2673    0.0000 </r>
       <r>    2.4827    0.0000 </r>
      </set>
      <set comment="kpoint 8">
       <r>  -21.6151    1.0000 </r>
       <r>  -21.2437    1.0000 </r>
       <r>  -21.2434    1.0000 </r>
       <r>  -19.0600    1.0000 </r>
       <r>  -19.0598    1.0000 </r>
       <r>  -18.3555    1.0000 </r>
       <r>  -17.0888    1.0000 </r>
       <r>  -17.0886    1.0000 </r>
       <r>  -16.7114    1.0000 </r>
       <r>  -15.6764    1.0000 </r>
       <r>  -15.6142    1.0000 </r>
       <r>  -15.6141    1.0000 </r>
       <r>  -12.9179    1.0000 </r>
       <r>  -12.2633    1.0000 </r>
       <r>  -12.2630    1.0000 </r>
       <r>  -11.3538    1.0000 </r>
       <r>  -10.5571    1.0000 </r>
       <r>  -10.5494    1.0000 </r>
       <r>  -10.5490    1.0000 </r>
       <r>   -9.8195    1.0000 </r>
       <r>   -9.8193    1.0000 </r>
       <r>   -9.5985    1.0000 </r>
       <r>   -9.1611    1.0000 </r>
       <r>   -9.1607    1.0000 </r>
       <r>   -8.8219    1.0000 </r>
       <r>   -8.8216    1.0000 </r>
       <r>   -7.8827    1.0000 </r>
       <r>   -7.6861    1.0000 </r>
       <r>   -7.6860    1.0000 </r>
       <r>   -7.0827    1.0000 </r>
       <r>   -6.6646    1.0000 </r>
       <r>   -6.6640    1.0000 </r>
       <r>   -5.8933    1.0000 </r>
       <r>   -5.0051    1.0000 </r>
       <r>   -5.0050    1.0000 </r>
       <r>   -4.6730    1.0000 </r>
       <r>   -1.2280    0.0000 </r>
       <r>   -1.0252    0.0000 </r>
       <r>   -1.0247    0.0000 </r>
       <r>    0.5276    0.0000 </r>
       <r>    1.3895    0.0000 </r>
       <r>    1.4822    0.0000 </r>
       <r>    1.4827    0.0000 </r>
       <r>    1.9001    0.0000 </r>
       <r>    1.9011    0.0000 </r>
       <r>    2.1940    0.0000 </r>
      </set>
     </set>
    </set>
   </array>
  </eigenvalues>
  <separator name="orbital magnetization" >
   <v name="MAGDIPOLOUT">      0.00000000      0.00000000      0.00000000</v>
  </separator>
  <dos>
   <i name="efermi">     -2.75535766 </i>
   <total>
    <array>
     <dimension dim="1">gridpoints</dimension>
     <dimension dim="2">spin</dimension>
     <field>energy</field>
     <field>total</field>
     <field>integrated</field>
     <set>
      <set comment="spin 1">
       <r>   -23.5111     0.0000     0.0000 </r>
       <r>   -23.4190     0.0000     0.0000 </r>
       <r>   -23.3270     0.0000     0.0000 </r>
       <r>   -23.2349     0.0000     0.0000 </r>
       <r>   -23.1429     0.0000     0.0000 </r>
       <r>   -23.0508     0.0000     0.0000 </r>
       <r>   -22.9587     0.0000     0.0000 </r>
       <r>   -22.8667     0.0000     0.0000 </r>
       <r>   -22.7746     0.0000     0.0000 </r>
       <r>   -22.6826     0.0000     0.0000 </r>
       <r>   -22.5905     0.0000     0.0000 </r>
       <r>   -22.4984     0.0000     0.0000 </r>
       <r>   -22.4064     0.0000     0.0000 </r>
       <r>   -22.3143     0.0236     0.0022 </r>
       <r>   -22.2223     1.1016     0.1036 </r>
       <r>   -22.1302     2.3657     0.3214 </r>
       <r>   -22.0382     3.5650     0.6496 </r>
       <r>   -21.9461     1.5382     0.7912 </r>
       <r>   -21.8540     4.0170     1.1610 </r>
       <r>   -21.7620     2.8375     1.4222 </r>
       <r>   -21.6699     1.1187     1.5252 </r>
       <r>   -21.5779     3.8395     1.8786 </r>
       <r>   -21.4858     3.9194     2.2394 </r>
       <r>   -21.3937     1.6508     2.3914 </r>
       <r>   -21.3017     1.3296     2.5138 </r>
       <r>   -21.2096     4.2742     2.9073 </r>
       <r>   -21.1176     4.5904     3.3299 </r>
       <r>   -21.0255     1.5183     3.4696 </r>
       <r>   -20.9335     1.1195     3.5727 </r>
       <r>   -20.8414     2.3789     3.7917 </r>
       <r>   -20.7493     5.5259     4.3004 </r>
       <r>   -20.6573     2.1112     4.4948 </r>
       <r>   -20.5652     4.2981     4.8904 </r>
       <r>   -20.4732     0.5255     4.9388 </r>
       <r>   -20.3811     0.5254     4.9872 </r>
       <r>   -20.2890     5.1702     5.4631 </r>
       <r>   -20.1970     4.6656     5.8926 </r>
       <r>   -20.1049     2.9061     6.1602 </r>
       <r>   -20.0129     1.1374     6.2649 </r>
       <r>   -19.9208     4.0206     6.6350 </r>
       <r>   -19.8288     0.2009     6.6535 </r>
       <r>   -19.7367     1.3125     6.7743 </r>
       <r>   -19.6446     7.6684     7.4803 </r>
       <r>   -19.5526     2.5714     7.7170 </r>
       <r>   -19.4605     4.1465     8.0987 </r>
       <r>   -19.3685     0.2648     8.1231 </r>
       <r>   -19.2764     1.8291     8.2915 </r>
       <r>   -19.1843     3.4124     8.6056 </r>
       <r>   -19.0923     1.0287     8.7003 </r>
       <r>   -19.0002     4.7454     9.1372 </r>
       <r>   -18.9082     5.7801     9.6693 </r>
       <r>   -18.8161     2.0295     9.8561 </r>
       <r>   -18.7241     4.1019    10.2337 </r>
       <r>   -18.6320     1.0066    10.3264 </r>
       <r>   -18.5399     0.0439    10.3305 </r>
       <r>   -18.4479     3.0412    10.6104 </r>
       <r>   -18.3558     3.9640    10.9753 </r>
       <r>   -18.2638     5.6269    11.4933 </r>
       <r>   -18.1717     2.4867    11.7223 </r>
       <r>   -18.0796     4.2325    12.1119 </r>
       <r>   -17.9876     1.9615    12.2925 </r>
       <r>   -17.8955     3.7740    12.6399 </r>
       <r>   -17.8035     1.4695    12.7752 </r>
       <r>   -17.7114     0.0062    12.7757 </r>
       <r>   -17.6194     1.7295    12.9350 </r>
       <r>   -17.5273     8.7311    13.7387 </r>
       <r>   -17.4352     4.9843    14.1976 </r>
       <r>   -17.3432     1.3437    14.3213 </r>
       <r>   -17.2511     4.8953    14.7719 </r>
       <r>   -17.1591     2.3149    14.9850 </r>
       <r>   -17.0670     3.8576    15.3402 </r>
       <r>   -16.9749     3.0828    15.6240 </r>
       <r>   -16.8829     0.9814    15.7143 </r>
       <r>   -16.7908     1.5225    15.8545 </r>
       <r>   -16.6988     8.7712    16.6619 </r>
       <r>   -16.6067     5.4802    17.1664 </r>
       <r>   -16.5147     0.1875    17.1837 </r>
       <r>   -16.4226     0.0000    17.1837 </r>
       <r>   -16.3305     0.0000    17.1837 </r>
       <r>   -16.2385     0.0395    17.1873 </r>
       <r>   -16.1464     1.7331    17.3469 </r>
       <r>   -16.0544     1.1356    17.4514 </r>
       <r>   -15.9623     4.8092    17.8941 </r>
       <r>   -15.8702     2.8538    18.1568 </r>
       <r>   -15.7782     0.5478    18.2073 </r>
       <r>   -15.6861     3.2110    18.5029 </r>
       <r>   -15.5941     5.4083    19.0008 </r>
       <r>   -15.5020     1.5396    19.1425 </r>
       <r>   -15.4100     0.0482    19.1469 </r>
       <r>   -15.3179     1.6329    19.2973 </r>
       <r>   -15.2258    10.0163    20.2193 </r>
       <r>   -15.1338     3.3744    20.5300 </r>
       <r>   -15.0417     0.9716    20.6194 </r>
       <r>   -14.9497     4.9156    21.0719 </r>
       <r>   -14.8576     4.4546    21.4820 </r>
       <r>   -14.7655     1.2655    21.5985 </r>
       <r>   -14.6735     2.8312    21.8592 </r>
       <r>   -14.5814     8.5608    22.6472 </r>
       <r>   -14.4894     0.9494    22.7347 </r>
       <r>   -14.3973     0.0887    22.7428 </r>
       <r>   -14.3053     3.7460    23.0877 </r>
       <r>   -14.2132     4.1465    23.4694 </r>
       <r>   -14.1211     4.5448    23.8878 </r>
       <r>   -14.0291     0.8468    23.9657 </r>
       <r>   -13.9370     3.4005    24.2788 </r>
       <r>   -13.8450     1.8439    24.4485 </r>
       <r>   -13.7529     1.2457    24.5632 </r>
       <r>   -13.6608     4.0149    24.9328 </r>
       <r>   -13.5688     2.2993    25.1445 </r>
       <r>   -13.4767     4.3512    25.5450 </r>
       <r>   -13.3847     1.4048    25.6744 </r>
       <r>   -13.2926     2.4233    25.8974 </r>
       <r>   -13.2006     3.7117    26.2391 </r>
       <r>   -13.1085     0.0629    26.2449 </r>
       <r>   -13.0164     0.7442    26.3134 </r>
       <r>   -12.9244     9.5353    27.1912 </r>
       <r>   -12.8323     4.9883    27.6505 </r>
       <r>   -12.7403     3.2940    27.9537 </r>
       <r>   -12.6482     0.3466    27.9856 </r>
       <r>   -12.5561     2.1445    28.1830 </r>
       <r>   -12.4641     0.2437    28.2055 </r>
       <r>   -12.3720     1.5764    28.3506 </r>
       <r>   -12.2800     7.9649    29.0838 </r>
       <r>   -12.1879     8.6922    29.8840 </r>
       <r>   -12.0959     2.9988    30.1601 </r>
       <r>   -12.0038     0.0424    30.1640 </r>
       <r>   -11.9117     1.8744    30.3365 </r>
       <r>   -11.8197     3.4142    30.6508 </r>
       <r>   -11.7276     3.6611    30.9879 </r>
       <r>   -11.6356     6.5008    31.5863 </r>
       <r>   -11.5435     0.5033    31.6326 </r>
       <r>   -11.4514     0.2204    31.6529 </r>
       <r>   -11.3594     6.4774    32.2492 </r>
       <r>   -11.2673     6.0397    32.8052 </r>
       <r>   -11.1753     3.3872    33.1170 </r>
       <r>   -11.0832     5.5920    33.6318 </r>
       <r>   -10.9912     4.6683    34.0616 </r>
       <r>   -10.8991     2.8453    34.3235 </r>
       <r>   -10.8070     0.0326    34.3265 </r>
       <r>   -10.7150     0.0023    34.3267 </r>
       <r>   -10.6229     1.4203    34.4575 </r>
       <r>   -10.5309    11.0631    35.4759 </r>
       <r>   -10.4388    10.7614    36.4666 </r>
       <r>   -10.3467     2.7457    36.7194 </r>
       <r>   -10.2547     5.9602    37.2681 </r>
       <r>   -10.1626     2.0360    37.4555 </r>
       <r>   -10.0706     4.2460    37.8464 </r>
       <r>    -9.9785     5.0131    38.3079 </r>
       <r>    -9.8865    10.7784    39.3001 </r>
       <r>    -9.7944    10.0690    40.2271 </r>
       <r>    -9.7023     6.1769    40.7957 </r>
       <r>    -9.6103     8.8820    41.6134 </r>
       <r>    -9.5182     8.7340    42.4174 </r>
       <r>    -9.4262     5.5727    42.9304 </r>
       <r>    -9.3341     3.7325    43.2740 </r>
       <r>    -9.2420    10.4640    44.2373 </r>
       <r>    -9.1500    11.8717    45.3302 </r>
       <r>    -9.0579    15.0067    46.7117 </r>
       <r>    -8.9659     6.7388    47.3320 </r>
       <r>    -8.8738     2.8883    47.5979 </r>
       <r>    -8.7818    12.7095    48.7680 </r>
       <r>    -8.6897     6.7461    49.3890 </r>
       <r>    -8.5976     7.4002    50.0702 </r>
       <r>    -8.5056     7.1607    50.7294 </r>
       <r>    -8.4135     8.0040    51.4663 </r>
       <r>    -8.3215     3.3225    51.7721 </r>
       <r>    -8.2294     4.0716    52.1470 </r>
       <r>    -8.1373     5.4469    52.6484 </r>
       <r>    -8.0453    13.9652    53.9340 </r>
       <r>    -7.9532     5.1428    54.4074 </r>
       <r>    -7.8612     5.0018    54.8679 </r>
       <r>    -7.7691     1.1256    54.9715 </r>
       <r>    -7.6771     8.4946    55.7535 </r>
       <r>    -7.5850     6.9717    56.3953 </r>
       <r>    -7.4929     5.1800    56.8722 </r>
       <r>    -7.4009     2.8691    57.1363 </r>
       <r>    -7.3088     7.3995    57.8175 </r>
       <r>    -7.2168     2.2025    58.0203 </r>
       <r>    -7.1247    10.1055    58.9506 </r>
       <r>    -7.0326     7.9204    59.6797 </r>
       <r>    -6.9406     3.3311    59.9864 </r>
       <r>    -6.8485     3.5995    60.3177 </r>
       <r>    -6.7565     0.1325    60.3299 </r>
       <r>    -6.6644     4.2896    60.7248 </r>
       <r>    -6.5724    10.6134    61.7019 </r>
       <r>    -6.4803     8.8035    62.5123 </r>
       <r>    -6.3882     4.1474    62.8941 </r>
       <r>    -6.2962     4.0048    63.2628 </r>
       <r>    -6.2041     1.7767    63.4263 </r>
       <r>    -6.1121     4.9737    63.8842 </r>
       <r>    -6.0200     4.7447    64.3210 </r>
       <r>    -5.9279     2.9055    64.5885 </r>
       <r>    -5.8359     7.9512    65.3205 </r>
       <r>    -5.7438     7.1495    65.9786 </r>
       <r>    -5.6518     3.4380    66.2951 </r>
       <r>    -5.5597     3.7796    66.6431 </r>
       <r>    -5.4677     1.4883    66.7801 </r>
       <r>    -5.3756     3.1912    67.0739 </r>
       <r>    -5.2835     2.0896    67.2662 </r>
       <r>    -5.1915     1.5161    67.4058 </r>
       <r>    -5.0994     3.2133    67.7016 </r>
       <r>    -5.0074    15.6977    69.1467 </r>
       <r>    -4.9153     6.1192    69.7100 </r>
       <r>    -4.8232     0.0463    69.7143 </r>
       <r>    -4.7312     0.1326    69.7265 </r>
       <r>    -4.6391     2.0777    69.9178 </r>
       <r>    -4.5471     0.4526    69.9594 </r>
       <r>    -4.4550     1.4073    70.0890 </r>
       <r>    -4.3630     3.9727    70.4547 </r>
       <r>    -4.2709     5.0650    70.9210 </r>
       <r>    -4.1788     2.8177    71.1804 </r>
       <r>    -4.0868     0.0358    71.1837 </r>
       <r>    -3.9947     0.0093    71.1845 </r>
       <r>    -3.9027     1.2221    71.2970 </r>
       <r>    -3.8106     1.4128    71.4271 </r>
       <r>    -3.7185     0.0160    71.4286 </r>
       <r>    -3.6265     0.0126    71.4297 </r>
       <r>    -3.5344     2.1842    71.6308 </r>
       <r>    -3.4424     3.0781    71.9142 </r>
       <r>    -3.3503     0.0456    71.9184 </r>
       <r>    -3.2583     0.0000    71.9184 </r>
       <r>    -3.1662     0.0000    71.9184 </r>
       <r>    -3.0741     0.0000    71.9184 </r>
       <r>    -2.9821     0.0000    71.9184 </r>
       <r>    -2.8900     0.0001    71.9184 </r>
       <r>    -2.7980     0.2022    71.9370 </r>
       <r>    -2.7059     1.4276    72.0684 </r>
       <r>    -2.6138     0.1435    72.0816 </r>
       <r>    -2.5218     0.0001    72.0816 </r>
       <r>    -2.4297     0.0000    72.0816 </r>
       <r>    -2.3377     0.0000    72.0816 </r>
       <r>    -2.2456     0.0000    72.0816 </r>
       <r>    -2.1536     0.0001    72.0816 </r>
       <r>    -2.0615     0.2893    72.1083 </r>
       <r>    -1.9694     4.1870    72.4937 </r>
       <r>    -1.8774     0.8433    72.5714 </r>
       <r>    -1.7853     0.0470    72.5757 </r>
       <r>    -1.6933     1.7859    72.7401 </r>
       <r>    -1.6012     0.8256    72.8161 </r>
       <r>    -1.5091     0.0026    72.8163 </r>
       <r>    -1.4171     0.0022    72.8165 </r>
       <r>    -1.3250     1.8827    72.9899 </r>
       <r>    -1.2330    11.5131    74.0497 </r>
       <r>    -1.1409     2.7410    74.3021 </r>
       <r>    -1.0489     3.5105    74.6252 </r>
       <r>    -0.9568     5.8762    75.1662 </r>
       <r>    -0.8647     1.7210    75.3246 </r>
       <r>    -0.7727     4.3123    75.7216 </r>
       <r>    -0.6806     3.3369    76.0288 </r>
       <r>    -0.5886     4.7854    76.4693 </r>
       <r>    -0.4965     2.9670    76.7425 </r>
       <r>    -0.4044     3.7645    77.0890 </r>
       <r>    -0.3124     3.3779    77.4000 </r>
       <r>    -0.2203     5.1929    77.8780 </r>
       <r>    -0.1283     0.8791    77.9590 </r>
       <r>    -0.0362     0.0027    77.9592 </r>
       <r>     0.0558     0.5272    78.0077 </r>
       <r>     0.1479     4.2946    78.4031 </r>
       <r>     0.2400     1.4534    78.5369 </r>
       <r>     0.3320     4.1945    78.9230 </r>
       <r>     0.4241     3.6613    79.2601 </r>
       <r>     0.5161     3.0647    79.5422 </r>
       <r>     0.6082     3.6472    79.8780 </r>
       <r>     0.7003     1.3134    79.9989 </r>
       <r>     0.7923     5.8949    80.5416 </r>
       <r>     0.8844     5.8442    81.0796 </r>
       <r>     0.9764     1.5154    81.2191 </r>
       <r>     1.0685     4.2766    81.6128 </r>
       <r>     1.1605     1.7977    81.7783 </r>
       <r>     1.2526     5.7117    82.3041 </r>
       <r>     1.3447     2.0968    82.4971 </r>
       <r>     1.4367     6.8548    83.1281 </r>
       <r>     1.5288    14.1566    84.4314 </r>
       <r>     1.6208     4.4245    84.8387 </r>
       <r>     1.7129     4.6619    85.2679 </r>
       <r>     1.8050     3.3492    85.5762 </r>
       <r>     1.8970     8.7785    86.3843 </r>
       <r>     1.9891     8.9073    87.2043 </r>
       <r>     2.0811     9.2240    88.0535 </r>
       <r>     2.1732     6.9049    88.6891 </r>
       <r>     2.2652     6.9247    89.3266 </r>
       <r>     2.3573     7.4156    90.0093 </r>
       <r>     2.4494     6.0323    90.5646 </r>
       <r>     2.5414     4.6773    90.9952 </r>
       <r>     2.6335     1.7163    91.1532 </r>
       <r>     2.7255     1.8595    91.3244 </r>
       <r>     2.8176     4.6688    91.7542 </r>
       <r>     2.9097     2.5405    91.9880 </r>
       <r>     3.0017     0.1300    92.0000 </r>
       <r>     3.0938     0.0000    92.0000 </r>
       <r>     3.1858     0.0000    92.0000 </r>
       <r>     3.2779     0.0000    92.0000 </r>
       <r>     3.3699     0.0000    92.0000 </r>
       <r>     3.4620     0.0000    92.0000 </r>
       <r>     3.5541     0.0000    92.0000 </r>
       <r>     3.6461     0.0000    92.0000 </r>
       <r>     3.7382     0.0000    92.0000 </r>
       <r>     3.8302     0.0000    92.0000 </r>
       <r>     3.9223     0.0000    92.0000 </r>
       <r>     4.0144     0.0000    92.0000 </r>
       <r>     4.1064     0.0000    92.0000 </r>
      </set>
     </set>
    </array>
   </total>
  </dos>
 </calculation>
 <structure name="finalpos" >
  <crystal>
   <varray name="basis" >
    <v>       7.40170591       0.00000000       0.00000000 </v>
    <v>      -3.70085295       6.41006527       0.00000000 </v>
    <v>       0.00000000       0.00000000      20.00000000 </v>
   </varray>
   <i name="volume">    948.90835877 </i>
   <varray name="rec_basis" >
    <v>       0.13510399       0.07800233       0.00000000 </v>
    <v>       0.00000000       0.15600465       0.00000000 </v>
    <v>       0.00000000       0.00000000       0.05000000 </v>
   </varray>
  </crystal>
  <varray name="positions" >
   <v>       0.00000000       0.00000000       0.49900000 </v>
   <v>       0.33333333       0.00000000       0.50000000 </v>
   <v>       0.66666667       0.00000000       0.50000000 </v>
   <v>       0.00000000       0.33333333       0.50000000 </v>
   <v>       0.33333333       0.33333333       0.50000000 </v>
   <v>       0.66666667       0.33333333       0.50000000 </v>
   <v>       0.00000000       0.66666667       0.50000000 </v>
   <v>       0.33333333       0.66666667       0.50000000 </v>
   <v>       0.66666667       0.66666667       0.50000000 </v>
   <v>       0.22222222       0.11111111       0.50000000 </v>
   <v>       0.55555556       0.11111111       0.50000000 </v>
   <v>       0.88888889       0.11111111       0.50000000 </v>
   <v>       0.22222222       0.44444444       0.50000000 </v>
   <v>       0.55555556       0.44444444       0.50000000 </v>
   <v>       0.88888889       0.44444444       0.50000000 </v>
   <v>       0.22222222       0.77777778       0.50000000 </v>
   <v>       0.55555556       0.77777778       0.50000000 </v>
   <v>       0.88888889       0.77777778       0.50000000 </v>
  </varray>
 </structure>
</modeling>
