<?xml version="1.0" encoding="ISO-8859-1"?>
<modeling>
 <generator>
  <i name="program" type="string">vasp </i>
  <i name="version" type="string">6.4.1  </i>
  <i name="subversion" type="string">05Apr23 (build Feb 12 2025 00:37:39) complex                          parallel </i>
  <i name="platform" type="string">LinuxIFC </i>
  <i name="date" type="string">2025 02 14 </i>
  <i name="time" type="string">06:43:00 </i>
 </generator>
 <incar>
  <i type="string" name="SYSTEM">SCF</i>
  <i type="int" name="ISTART">     0</i>
  <i type="int" name="ICHARG">     2</i>
  <i type="int" name="NELM">    60</i>
  <i type="int" name="NELMIN">     6</i>
  <i name="EDIFF">      0.00000100</i>
  <i name="EDIFFG">     -0.00000100</i>
  <i name="ENCUT">    600.00000000</i>
  <i type="string" name="LREAL">Auto</i>
  <i type="int" name="ISMEAR">     0</i>
  <i name="SIGMA">      0.05000000</i>
  <i type="logical" name="LWAVE"> F  </i>
  <i type="logical" name="LCHARG"> F  </i>
 </incar>
 <primitive_cell>
  <structure name="primitive_cell" >
   <crystal>
    <varray name="basis" >
     <v>       7.40170591       0.00000000       0.00000000 </v>
     <v>      -3.70085295       6.41006527       0.00000000 </v>
     <v>       0.00000000       0.00000000      20.00000000 </v>
    </varray>
    <i name="volume">    948.90835877 </i>
    <varray name="rec_basis" >
     <v>       0.13510399       0.07800233       0.00000000 </v>
     <v>       0.00000000       0.15600465       0.00000000 </v>
     <v>       0.00000000       0.00000000       0.05000000 </v>
    </varray>
   </crystal>
   <varray name="positions" >
    <v>       0.00078002       0.00156005       0.50000000 </v>
    <v>       0.33198229       0.00000000       0.50000000 </v>
    <v>       0.66666667       0.00000000       0.50000000 </v>
    <v>       1.00000000       0.33333333       0.50000000 </v>
    <v>       0.33333333       0.33333333       0.50000000 </v>
    <v>       0.66666667       0.33333333       0.50000000 </v>
    <v>       1.00000000       0.66666667       0.50000000 </v>
    <v>       0.33333333       0.66666667       0.50000000 </v>
    <v>       0.66666667       0.66666667       0.50000000 </v>
    <v>       0.22222222       0.11111111       0.50000000 </v>
    <v>       0.55555556       0.11111111       0.50000000 </v>
    <v>       0.88888889       0.11111111       0.50000000 </v>
    <v>       0.22222222       0.44444444       0.50000000 </v>
    <v>       0.55555556       0.44444444       0.50000000 </v>
    <v>       0.88888889       0.44444444       0.50000000 </v>
    <v>       0.22222222       0.77777778       0.50000000 </v>
    <v>       0.55555556       0.77777778       0.50000000 </v>
    <v>       0.88888889       0.77777778       0.50000000 </v>
   </varray>
  </structure>
  <varray name="primitive_index" >
   <v type="int" >        1 </v>
   <v type="int" >        2 </v>
   <v type="int" >        3 </v>
   <v type="int" >        4 </v>
   <v type="int" >        5 </v>
   <v type="int" >        6 </v>
   <v type="int" >        7 </v>
   <v type="int" >        8 </v>
   <v type="int" >        9 </v>
   <v type="int" >       10 </v>
   <v type="int" >       11 </v>
   <v type="int" >       12 </v>
   <v type="int" >       13 </v>
   <v type="int" >       14 </v>
   <v type="int" >       15 </v>
   <v type="int" >       16 </v>
   <v type="int" >       17 </v>
   <v type="int" >       18 </v>
  </varray>
 </primitive_cell>
 <kpoints>
  <generation param="Gamma">
   <v type="int" name="divisions">       7        7        1 </v>
   <v name="usershift">      0.00000000       0.00000000       0.00000000 </v>
   <v name="genvec1">      0.14285714       0.00000000       0.00000000 </v>
   <v name="genvec2">      0.00000000       0.14285714       0.00000000 </v>
   <v name="genvec3">      0.00000000       0.00000000       1.00000000 </v>
   <v name="shift">      0.00000000       0.00000000       0.00000000 </v>
  </generation>
  <varray name="kpointlist" >
   <v>       0.00000000       0.00000000       0.00000000 </v>
   <v>       0.14285714       0.00000000       0.00000000 </v>
   <v>       0.00000000       0.14285714       0.00000000 </v>
   <v>      -0.14285714       0.14285714       0.00000000 </v>
   <v>       0.28571429       0.00000000       0.00000000 </v>
   <v>       0.00000000       0.28571429       0.00000000 </v>
   <v>      -0.28571429       0.28571429       0.00000000 </v>
   <v>       0.42857143       0.00000000       0.00000000 </v>
   <v>       0.00000000       0.42857143       0.00000000 </v>
   <v>      -0.42857143       0.42857143       0.00000000 </v>
   <v>       0.14285714       0.14285714       0.00000000 </v>
   <v>      -0.14285714       0.28571429       0.00000000 </v>
   <v>      -0.28571429       0.14285714       0.00000000 </v>
   <v>       0.28571429       0.14285714       0.00000000 </v>
   <v>      -0.14285714       0.42857143       0.00000000 </v>
   <v>      -0.42857143       0.28571429       0.00000000 </v>
   <v>      -0.28571429       0.42857143       0.00000000 </v>
   <v>       0.14285714       0.28571429       0.00000000 </v>
   <v>       0.42857143      -0.14285714       0.00000000 </v>
   <v>       0.42857143       0.14285714       0.00000000 </v>
   <v>      -0.14285714      -0.42857143       0.00000000 </v>
   <v>       0.42857143       0.42857143       0.00000000 </v>
   <v>       0.28571429       0.28571429       0.00000000 </v>
   <v>      -0.28571429      -0.42857143       0.00000000 </v>
   <v>       0.42857143       0.28571429       0.00000000 </v>
  </varray>
  <varray name="weights" >
   <v>       0.02040816 </v>
   <v>       0.04081633 </v>
   <v>       0.04081633 </v>
   <v>       0.04081633 </v>
   <v>       0.04081633 </v>
   <v>       0.04081633 </v>
   <v>       0.04081633 </v>
   <v>       0.04081633 </v>
   <v>       0.04081633 </v>
   <v>       0.04081633 </v>
   <v>       0.04081633 </v>
   <v>       0.04081633 </v>
   <v>       0.04081633 </v>
   <v>       0.04081633 </v>
   <v>       0.04081633 </v>
   <v>       0.04081633 </v>
   <v>       0.04081633 </v>
   <v>       0.04081633 </v>
   <v>       0.04081633 </v>
   <v>       0.04081633 </v>
   <v>       0.04081633 </v>
   <v>       0.04081633 </v>
   <v>       0.04081633 </v>
   <v>       0.04081633 </v>
   <v>       0.04081633 </v>
  </varray>
 </kpoints>
 <parameters>
  <separator name="general" >
   <i type="string" name="SYSTEM">SCF</i>
   <i type="logical" name="LCOMPAT"> F  </i>
  </separator>
  <separator name="electronic" >
   <i type="string" name="PREC">normal</i>
   <i name="ENMAX">    600.00000000</i>
   <i name="ENAUG">    644.87300000</i>
   <i name="EDIFF">      0.00000100</i>
   <i type="int" name="IALGO">    38</i>
   <i type="int" name="IWAVPR">    10</i>
   <i type="int" name="NBANDS">    46</i>
   <i type="int" name="NBANDSLOW">    -1</i>
   <i type="int" name="NBANDSHIGH">    -1</i>
   <i name="NELECT">     72.00000000</i>
   <i type="int" name="TURBO">     0</i>
   <i type="int" name="IRESTART">     0</i>
   <i type="int" name="NREBOOT">     0</i>
   <i type="int" name="NMIN">     0</i>
   <i name="EREF">      0.00000000</i>
   <separator name="electronic smearing" >
    <i type="int" name="ISMEAR">     0</i>
    <i name="SIGMA">      0.05000000</i>
    <i name="KSPACING">      0.50000000</i>
    <i type="logical" name="KGAMMA"> T  </i>
    <i type="logical" name="KBLOWUP"> T  </i>
   </separator>
   <separator name="electronic projectors" >
    <i type="logical" name="LREAL"> T  </i>
    <v name="ROPT">     -0.00050000</v>
    <i type="int" name="LMAXPAW">  -100</i>
    <i type="int" name="LMAXMIX">     2</i>
    <i type="logical" name="NLSPLINE"> F  </i>
   </separator>
   <separator name="electronic startup" >
    <i type="int" name="ISTART">     0</i>
    <i type="int" name="ICHARG">     2</i>
    <i type="int" name="INIWAV">     1</i>
   </separator>
   <separator name="electronic spin" >
    <i type="int" name="ISPIN">     1</i>
    <i type="logical" name="LNONCOLLINEAR"> F  </i>
    <v name="MAGMOM">      1.00000000      1.00000000      1.00000000      1.00000000      1.00000000      1.00000000      1.00000000      1.00000000      1.00000000      1.00000000      1.00000000      1.00000000      1.00000000      1.00000000      1.00000000      1.00000000      1.00000000      1.00000000</v>
    <i name="NUPDOWN">     -1.00000000</i>
    <i type="logical" name="LSORBIT"> F  </i>
    <v name="SAXIS">      0.00000000      0.00000000      1.00000000</v>
    <i type="logical" name="LSPIRAL"> F  </i>
    <v name="QSPIRAL">      0.00000000      0.00000000      0.00000000</v>
    <i type="logical" name="LZEROZ"> F  </i>
   </separator>
   <separator name="electronic exchange-correlation" >
    <i type="logical" name="LASPH"> F  </i>
    <i type="logical" name="LMETAGGA"> F  </i>
   </separator>
   <separator name="electronic convergence" >
    <i type="int" name="NELM">    60</i>
    <i type="int" name="NELMDL">    -5</i>
    <i type="int" name="NELMIN">     6</i>
    <i name="ENINI">    600.00000000</i>
    <separator name="electronic convergence detail" >
     <i type="logical" name="LDIAG"> T  </i>
     <i type="logical" name="LSUBROT"> F  </i>
     <i name="WEIMIN">      0.00000000</i>
     <i name="EBREAK">      0.00000000</i>
     <i name="DEPER">      0.30000000</i>
     <i type="int" name="NRMM">     4</i>
     <i name="TIME">      0.40000000</i>
    </separator>
   </separator>
   <separator name="electronic mixer" >
    <i name="AMIX">      0.40000000</i>
    <i name="BMIX">      1.00000000</i>
    <i name="AMIN">      0.10000000</i>
    <i name="AMIX_MAG">      1.60000000</i>
    <i name="BMIX_MAG">      1.00000000</i>
    <separator name="electronic mixer details" >
     <i type="int" name="IMIX">     4</i>
     <i type="logical" name="MIXFIRST"> F  </i>
     <i type="int" name="MAXMIX">   -45</i>
     <i name="WC">    100.00000000</i>
     <i type="int" name="INIMIX">     1</i>
     <i type="int" name="MIXPRE">     1</i>
     <i type="int" name="MREMOVE">     5</i>
    </separator>
   </separator>
   <separator name="electronic dipolcorrection" >
    <i type="logical" name="LDIPOL"> F  </i>
    <i type="logical" name="LMONO"> F  </i>
    <i type="int" name="IDIPOL">     0</i>
    <i name="EPSILON">      1.00000000</i>
    <v name="DIPOL">   -100.00000000   -100.00000000   -100.00000000</v>
    <i name="EFIELD">      0.00000000</i>
   </separator>
  </separator>
  <separator name="grids" >
   <i type="int" name="NGX">    48</i>
   <i type="int" name="NGY">    48</i>
   <i type="int" name="NGZ">   120</i>
   <i type="int" name="NGXF">    96</i>
   <i type="int" name="NGYF">    96</i>
   <i type="int" name="NGZF">   240</i>
   <i type="logical" name="ADDGRID"> F  </i>
  </separator>
  <separator name="ionic" >
   <i type="int" name="NSW">     0</i>
   <i type="int" name="IBRION">    -1</i>
   <i type="int" name="MDALGO">     0</i>
   <i type="int" name="ISIF">     2</i>
   <i name="PSTRESS">      0.00000000</i>
   <i name="EDIFFG">     -0.00000100</i>
   <i type="int" name="NFREE">     0</i>
   <i name="POTIM">      0.50000000</i>
   <i name="SMASS">     -3.00000000</i>
   <i name="SCALEE">      1.00000000</i>
  </separator>
  <separator name="ionic md" >
   <i name="TEBEG">      0.00010000</i>
   <i name="TEEND">      0.00010000</i>
   <i type="int" name="NBLOCK">     1</i>
   <i type="int" name="KBLOCK">     1</i>
   <i type="int" name="NPACO">   256</i>
   <i name="APACO">     10.00000000</i>
  </separator>
  <separator name="symmetry" >
   <i type="int" name="ISYM">     2</i>
   <i name="SYMPREC">      0.00001000</i>
  </separator>
  <separator name="dos" >
   <i type="int" name="LORBIT">     0</i>
   <v name="RWIGS">     -1.00000000</v>
   <i type="int" name="NEDOS">   301</i>
   <i name="EMIN">     10.00000000</i>
   <i name="EMAX">    -10.00000000</i>
   <i name="EFERMI">      0.00000000</i>
  </separator>
  <separator name="writing" >
   <i type="int" name="NWRITE">     2</i>
   <i type="logical" name="LWAVE"> F  </i>
   <i type="logical" name="LDOWNSAMPLE"> F  </i>
   <i type="logical" name="LCHARG"> F  </i>
   <i type="logical" name="LPARD"> F  </i>
   <i type="logical" name="LVTOT"> F  </i>
   <i type="logical" name="LVHAR"> F  </i>
   <i type="logical" name="LELF"> F  </i>
   <i type="logical" name="LOPTICS"> F  </i>
   <v name="STM">      0.00000000      0.00000000      0.00000000      0.00000000      0.00000000      0.00000000      0.00000000</v>
  </separator>
  <separator name="performance" >
   <i type="int" name="NPAR">     2</i>
   <i type="int" name="NSIM">     4</i>
   <i type="int" name="NBLK">    -1</i>
   <i type="logical" name="LPLANE"> T  </i>
   <i type="logical" name="LSCALAPACK"> T  </i>
   <i type="logical" name="LSCAAWARE"> F  </i>
   <i type="logical" name="LSCALU"> F  </i>
   <i type="logical" name="LASYNC"> F  </i>
   <i type="logical" name="LORBITALREAL"> F  </i>
  </separator>
  <separator name="miscellaneous" >
   <i type="int" name="IDIOT">     3</i>
   <i type="int" name="PHON_NSTRUCT">    -1</i>
   <i type="logical" name="LMUSIC"> F  </i>
   <v name="POMASS">     12.01100000</v>
   <v name="DARWINR">      0.00000000</v>
   <v name="DARWINV">      1.00000000</v>
   <i type="logical" name="LCORR"> T  </i>
  </separator>
  <i type="logical" name="GGA_COMPAT"> T  </i>
  <i type="logical" name="LBERRY"> F  </i>
  <i type="int" name="ICORELEVEL">     0</i>
  <i type="logical" name="LDAU"> F  </i>
  <i type="int" name="I_CONSTRAINED_M">     0</i>
  <separator name="electronic exchange-correlation" >
   <i type="string" name="GGA">--</i>
   <i type="int" name="VOSKOWN">     0</i>
   <i type="logical" name="LHFCALC"> F  </i>
   <i type="string" name="PRECFOCK"></i>
   <i type="logical" name="LSYMGRAD"> F  </i>
   <i type="logical" name="LHFONE"> F  </i>
   <i type="logical" name="LRHFCALC"> F  </i>
   <i type="logical" name="LTHOMAS"> F  </i>
   <i type="logical" name="LMODELHF"> F  </i>
   <i type="logical" name="LFOCKACE"> F  </i>
   <i name="ENCUT4O">     -1.00000000</i>
   <i type="int" name="EXXOEP">     0</i>
   <i type="int" name="FOURORBIT">     0</i>
   <i name="AEXX">      0.00000000</i>
   <i name="HFALPHA">      0.00000000</i>
   <i name="MCALPHA">      0.00000000</i>
   <i name="ALDAX">      1.00000000</i>
   <i name="AGGAX">      1.00000000</i>
   <i name="ALDAC">      1.00000000</i>
   <i name="AGGAC">      1.00000000</i>
   <i type="int" name="NKREDX">     1</i>
   <i type="int" name="NKREDY">     1</i>
   <i type="int" name="NKREDZ">     1</i>
   <i type="logical" name="SHIFTRED"> F  </i>
   <i type="logical" name="ODDONLY"> F  </i>
   <i type="logical" name="EVENONLY"> F  </i>
   <i type="int" name="LMAXFOCK">     0</i>
   <i type="int" name="NMAXFOCKAE">     0</i>
   <i type="logical" name="LFOCKAEDFT"> F  </i>
   <i name="HFSCREEN">      0.00000000</i>
   <i name="HFSCREENC">      0.00000000</i>
   <i type="int" name="NBANDSGWLOW">     0</i>
  </separator>
  <separator name="vdW DFT" >
   <i type="logical" name="LUSE_VDW"> F  </i>
   <i type="int" name="IVDW_NL">     1</i>
   <i type="logical" name="LSPIN_VDW"> F  </i>
   <i name="Zab_VDW">     -0.84910000</i>
   <i name="PARAM1">      0.12340000</i>
   <i name="PARAM2">      1.00000000</i>
   <i name="PARAM3">      0.00000000</i>
  </separator>
  <separator name="model GW" >
   <i type="int" name="MODEL_GW">     0</i>
   <i name="MODEL_EPS0">     31.63027863</i>
   <i name="MODEL_ALPHA">      1.00000000</i>
  </separator>
  <separator name="linear response parameters" >
   <i type="logical" name="LEPSILON"> F  </i>
   <i type="logical" name="LRPA"> F  </i>
   <i type="logical" name="LNABLA"> F  </i>
   <i type="logical" name="LVEL"> F  </i>
   <i name="CSHIFT">      0.10000000</i>
   <i name="OMEGAMAX">     -1.00000000</i>
   <i name="DEG_THRESHOLD">      0.00200000</i>
   <i name="RTIME">     -0.10000000</i>
   <i name="WPLASMAI">      0.00000000</i>
   <v name="DFIELD">      0.00000000      0.00000000      0.00000000</v>
   <v name="WPLASMA">      0.00000000      0.00000000      0.00000000      0.00000000      0.00000000      0.00000000      0.00000000      0.00000000      0.00000000</v>
  </separator>
  <separator name="orbital magnetization" >
   <i type="logical" name="NUCIND"> F  </i>
   <v name="MAGPOS">      0.00000000      0.00000000      0.00000000</v>
   <i type="logical" name="LNICSALL"> T  </i>
   <i type="logical" name="ORBITALMAG"> F  </i>
   <i type="logical" name="LMAGBLOCH"> F  </i>
   <i type="logical" name="LCHIMAG"> F  </i>
   <i type="logical" name="LGAUGE"> T  </i>
   <i type="int" name="MAGATOM">     0</i>
   <v name="MAGDIPOL">      0.00000000      0.00000000      0.00000000</v>
   <v name="AVECCONST">      0.00000000      0.00000000      0.00000000</v>
  </separator>
  <separator name="response functions" >
   <i type="logical" name="LALL_IN_ONE"> F  </i>
   <i type="int" name="IALL_IN_ONE">    -1</i>
   <i type="int" name="NBANDS_WAVE">    -1</i>
   <i type="logical" name="LFINITE_TEMPERATURE"> F  </i>
   <i type="logical" name="LADDER"> F  </i>
   <i type="logical" name="LRPAFORCE"> F  </i>
   <i type="logical" name="LFXC"> F  </i>
   <i type="logical" name="LHARTREE"> T  </i>
   <i type="int" name="IBSE">     0</i>
   <v type="int" name="KPOINT">    -1     0     0     0</v>
   <i type="logical" name="LTCTC"> F  </i>
   <i type="logical" name="LTCTE"> F  </i>
   <i type="logical" name="LTETE"> F  </i>
   <i type="logical" name="LTRIPLET"> F  </i>
   <i type="logical" name="LFXCEPS"> F  </i>
   <i type="logical" name="LFXHEG"> F  </i>
   <i type="int" name="NATURALO">     2</i>
   <i type="logical" name="LHOLEGF"> F  </i>
   <i type="logical" name="L2ORDER"> F  </i>
   <i type="logical" name="LDMP1"> F  </i>
   <i type="logical" name="LMP2LT"> F  </i>
   <i type="logical" name="LSMP2LT"> F  </i>
   <i type="logical" name="LGWLF"> F  </i>
   <i name="ENCUTGW">     -1.60000002</i>
   <i name="ENCUTGWSOFT">     -1.60000002</i>
   <i name="ENCUTLF">     -1.00000000</i>
   <i type="logical" name="LESF_SPLINES"> F  </i>
   <i type="int" name="LMAXMP2">    -1</i>
   <i name="SCISSOR">      0.00000000</i>
   <i type="int" name="NOMEGA">     0</i>
   <i type="int" name="NOMEGAR">     0</i>
   <i type="int" name="NBANDSGW">    -1</i>
   <i type="int" name="NBANDSO">    -1</i>
   <i type="int" name="NBANDSV">    -1</i>
   <i type="int" name="NELMGW">     1</i>
   <i type="int" name="NELMHF">     1</i>
   <i type="int" name="DIM">     3</i>
   <i type="int" name="IESPILON">     4</i>
   <i type="int" name="ANTIRES">     0</i>
   <i name="OMEGAMAX">    -30.00000000</i>
   <i name="OMEGAMIN">    -30.00000000</i>
   <i name="OMEGATL">   -200.00000000</i>
   <i type="int" name="OMEGAGRID">     0</i>
   <i name="CSHIFT">     -0.10000000</i>
   <i type="logical" name="LSELFENERGY"> F  </i>
   <i type="logical" name="LSPECTRAL"> F  </i>
   <i type="logical" name="LSPECTRALGW"> F  </i>
   <i type="logical" name="LSINGLES"> F  </i>
   <i type="logical" name="LFERMIGW"> F  </i>
   <i type="logical" name="ODDONLYGW"> F  </i>
   <i type="logical" name="EVENONLYGW"> F  </i>
   <i type="int" name="NKREDLFX">     1</i>
   <i type="int" name="NKREDLFY">     1</i>
   <i type="int" name="NKREDLFZ">     1</i>
   <i type="int" name="MAXMEM">  2800</i>
   <i type="int" name="TELESCOPE">     0</i>
   <i type="int" name="NTAUPAR">    -1</i>
   <i type="int" name="NOMEGAPAR">    -1</i>
   <i name="DAMP_NEWTON">      0.80000001</i>
   <i name="LAMBDA">      1.00000000</i>
  </separator>
  <separator name="External order field" >
   <i name="OFIELD_KAPPA">      0.00000000</i>
   <v name="OFIELD_K">      0.00000000      0.00000000      0.00000000</v>
   <i name="OFIELD_Q6_NEAR">      0.00000000</i>
   <i name="OFIELD_Q6_FAR">      0.00000000</i>
   <i name="OFIELD_A">      0.00000000</i>
  </separator>
  <separator name="optional k-points parameters" >
   <i type="int" name="KPOINTS_OPT_MODE">     1</i>
   <i type="logical" name="LKPOINTS_OPT"> F  </i>
  </separator>
 </parameters>
 <atominfo>
  <atoms>      18 </atoms>
  <types>       1 </types>
  <array name="atoms" >
   <dimension dim="1">ion</dimension>
   <field type="string">element</field>
   <field type="int">atomtype</field>
   <set>
    <rc><c>C </c><c>   1</c></rc>
    <rc><c>C </c><c>   1</c></rc>
    <rc><c>C </c><c>   1</c></rc>
    <rc><c>C </c><c>   1</c></rc>
    <rc><c>C </c><c>   1</c></rc>
    <rc><c>C </c><c>   1</c></rc>
    <rc><c>C </c><c>   1</c></rc>
    <rc><c>C </c><c>   1</c></rc>
    <rc><c>C </c><c>   1</c></rc>
    <rc><c>C </c><c>   1</c></rc>
    <rc><c>C </c><c>   1</c></rc>
    <rc><c>C </c><c>   1</c></rc>
    <rc><c>C </c><c>   1</c></rc>
    <rc><c>C </c><c>   1</c></rc>
    <rc><c>C </c><c>   1</c></rc>
    <rc><c>C </c><c>   1</c></rc>
    <rc><c>C </c><c>   1</c></rc>
    <rc><c>C </c><c>   1</c></rc>
   </set>
  </array>
  <array name="atomtypes" >
   <dimension dim="1">type</dimension>
   <field type="int">atomspertype</field>
   <field type="string">element</field>
   <field>mass</field>
   <field>valence</field>
   <field type="string">pseudopotential</field>
   <set>
    <rc><c>  18</c><c>C </c><c>     12.01100000</c><c>      4.00000000</c><c>  PAW_PBE C 08Apr2002                   </c></rc>
   </set>
  </array>
 </atominfo>
 <structure name="initialpos" >
  <crystal>
   <varray name="basis" >
    <v>       7.40170591       0.00000000       0.00000000 </v>
    <v>      -3.70085295       6.41006527       0.00000000 </v>
    <v>       0.00000000       0.00000000      20.00000000 </v>
   </varray>
   <i name="volume">    948.90835877 </i>
   <varray name="rec_basis" >
    <v>       0.13510399       0.07800233       0.00000000 </v>
    <v>       0.00000000       0.15600465       0.00000000 </v>
    <v>       0.00000000       0.00000000       0.05000000 </v>
   </varray>
  </crystal>
  <varray name="positions" >
   <v>       0.00078002       0.00156005       0.50000000 </v>
   <v>       0.33198229       0.00000000       0.50000000 </v>
   <v>       0.66666667       0.00000000       0.50000000 </v>
   <v>       0.00000000       0.33333333       0.50000000 </v>
   <v>       0.33333333       0.33333333       0.50000000 </v>
   <v>       0.66666667       0.33333333       0.50000000 </v>
   <v>       0.00000000       0.66666667       0.50000000 </v>
   <v>       0.33333333       0.66666667       0.50000000 </v>
   <v>       0.66666667       0.66666667       0.50000000 </v>
   <v>       0.22222222       0.11111111       0.50000000 </v>
   <v>       0.55555556       0.11111111       0.50000000 </v>
   <v>       0.88888889       0.11111111       0.50000000 </v>
   <v>       0.22222222       0.44444444       0.50000000 </v>
   <v>       0.55555556       0.44444444       0.50000000 </v>
   <v>       0.88888889       0.44444444       0.50000000 </v>
   <v>       0.22222222       0.77777778       0.50000000 </v>
   <v>       0.55555556       0.77777778       0.50000000 </v>
   <v>       0.88888889       0.77777778       0.50000000 </v>
  </varray>
 </structure>
 <calculation>
  <scstep>
   <time name="dav">    6.06    6.23</time>
   <time name="total">    6.15    6.32</time>
   <energy>
    <i name="alphaZ">     28.04858418 </i>
    <i name="ewald">  11638.87675452 </i>
    <i name="hartreedc"> -13553.18234918 </i>
    <i name="XCdc">    237.17774857 </i>
    <i name="pawpsdc">   1953.39683484 </i>
    <i name="pawaedc">  -1963.64613940 </i>
    <i name="eentropy">     -0.00830761 </i>
    <i name="bandstr">   -257.76555334 </i>
    <i name="atom">   2648.70517965 </i>
    <i name="e_fr_energy">    731.60275223 </i>
    <i name="e_wo_entrp">    731.61105984 </i>
    <i name="e_0_energy">    731.60690603 </i>
   </energy>
  </scstep>
  <scstep>
   <time name="dav">    8.01    7.52</time>
   <time name="total">    8.01    7.52</time>
   <energy>
    <i name="e_fr_energy">    -23.89541525 </i>
    <i name="e_wo_entrp">    -23.89519463 </i>
    <i name="e_0_energy">    -23.89530494 </i>
   </energy>
  </scstep>
  <scstep>
   <time name="dav">    6.46    6.61</time>
   <time name="total">    6.46    6.61</time>
   <energy>
    <i name="e_fr_energy">   -172.28128259 </i>
    <i name="e_wo_entrp">   -172.27995775 </i>
    <i name="e_0_energy">   -172.28062017 </i>
   </energy>
  </scstep>
  <scstep>
   <time name="dav">    6.37    6.51</time>
   <time name="total">    6.37    6.51</time>
   <energy>
    <i name="e_fr_energy">   -177.34624503 </i>
    <i name="e_wo_entrp">   -177.34414296 </i>
    <i name="e_0_energy">   -177.34519400 </i>
   </energy>
  </scstep>
  <scstep>
   <time name="dav">    7.31    7.47</time>
   <time name="total">    7.58    7.74</time>
   <energy>
    <i name="e_fr_energy">   -177.48416734 </i>
    <i name="e_wo_entrp">   -177.48207001 </i>
    <i name="e_0_energy">   -177.48311867 </i>
   </energy>
  </scstep>
  <scstep>
   <time name="dav">    6.01    6.14</time>
   <time name="total">    6.36    6.50</time>
   <energy>
    <i name="e_fr_energy">   -169.31564652 </i>
    <i name="e_wo_entrp">   -169.31347065 </i>
    <i name="e_0_energy">   -169.31455858 </i>
   </energy>
  </scstep>
  <scstep>
   <time name="dav">    5.95    5.36</time>
   <time name="total">    6.30    5.72</time>
   <energy>
    <i name="e_fr_energy">   -166.14831477 </i>
    <i name="e_wo_entrp">   -166.14612602 </i>
    <i name="e_0_energy">   -166.14722040 </i>
   </energy>
  </scstep>
  <scstep>
   <time name="dav">    6.23    6.37</time>
   <time name="total">    6.57    6.72</time>
   <energy>
    <i name="e_fr_energy">   -166.08544699 </i>
    <i name="e_wo_entrp">   -166.08326788 </i>
    <i name="e_0_energy">   -166.08435744 </i>
   </energy>
  </scstep>
  <scstep>
   <time name="dav">    6.62    6.76</time>
   <time name="total">    6.96    7.11</time>
   <energy>
    <i name="e_fr_energy">   -166.07261357 </i>
    <i name="e_wo_entrp">   -166.07043018 </i>
    <i name="e_0_energy">   -166.07152188 </i>
   </energy>
  </scstep>
  <scstep>
   <time name="dav">    5.83    5.95</time>
   <time name="total">    6.19    6.32</time>
   <energy>
    <i name="e_fr_energy">   -166.05404386 </i>
    <i name="e_wo_entrp">   -166.05185773 </i>
    <i name="e_0_energy">   -166.05295079 </i>
   </energy>
  </scstep>
  <scstep>
   <time name="dav">    5.77    5.90</time>
   <time name="total">    6.12    6.26</time>
   <energy>
    <i name="e_fr_energy">   -166.05713907 </i>
    <i name="e_wo_entrp">   -166.05495593 </i>
    <i name="e_0_energy">   -166.05604750 </i>
   </energy>
  </scstep>
  <scstep>
   <time name="dav">    5.95    5.40</time>
   <time name="total">    6.30    5.75</time>
   <energy>
    <i name="e_fr_energy">   -166.06184939 </i>
    <i name="e_wo_entrp">   -166.05966610 </i>
    <i name="e_0_energy">   -166.06075774 </i>
   </energy>
  </scstep>
  <scstep>
   <time name="dav">    5.74    5.87</time>
   <time name="total">    6.09    6.23</time>
   <energy>
    <i name="e_fr_energy">   -166.06605602 </i>
    <i name="e_wo_entrp">   -166.06387182 </i>
    <i name="e_0_energy">   -166.06496392 </i>
   </energy>
  </scstep>
  <scstep>
   <time name="dav">    5.65    5.77</time>
   <time name="total">    6.00    6.13</time>
   <energy>
    <i name="e_fr_energy">   -166.06991142 </i>
    <i name="e_wo_entrp">   -166.06772731 </i>
    <i name="e_0_energy">   -166.06881936 </i>
   </energy>
  </scstep>
  <scstep>
   <time name="dav">    5.89    6.01</time>
   <time name="total">    6.26    6.39</time>
   <energy>
    <i name="e_fr_energy">   -166.07135700 </i>
    <i name="e_wo_entrp">   -166.06917281 </i>
    <i name="e_0_energy">   -166.07026491 </i>
   </energy>
  </scstep>
  <scstep>
   <time name="dav">    6.01    6.14</time>
   <time name="total">    6.36    6.50</time>
   <energy>
    <i name="e_fr_energy">   -166.07149825 </i>
    <i name="e_wo_entrp">   -166.06931410 </i>
    <i name="e_0_energy">   -166.07040618 </i>
   </energy>
  </scstep>
  <scstep>
   <time name="dav">    5.73    5.15</time>
   <time name="total">    6.09    5.52</time>
   <energy>
    <i name="e_fr_energy">   -166.07171247 </i>
    <i name="e_wo_entrp">   -166.06952851 </i>
    <i name="e_0_energy">   -166.07062049 </i>
   </energy>
  </scstep>
  <scstep>
   <time name="dav">    5.08    5.19</time>
   <time name="total">    5.43    5.55</time>
   <energy>
    <i name="e_fr_energy">   -166.07176785 </i>
    <i name="e_wo_entrp">   -166.06958378 </i>
    <i name="e_0_energy">   -166.07067581 </i>
   </energy>
  </scstep>
  <scstep>
   <time name="dav">    5.08    5.19</time>
   <time name="total">    5.44    5.56</time>
   <energy>
    <i name="e_fr_energy">   -166.07180185 </i>
    <i name="e_wo_entrp">   -166.06961774 </i>
    <i name="e_0_energy">   -166.07070980 </i>
   </energy>
  </scstep>
  <scstep>
   <time name="dav">    4.89    4.99</time>
   <time name="total">    5.24    5.35</time>
   <energy>
    <i name="e_fr_energy">   -166.07183028 </i>
    <i name="e_wo_entrp">   -166.06964622 </i>
    <i name="e_0_energy">   -166.07073825 </i>
   </energy>
  </scstep>
  <scstep>
   <time name="dav">    3.94    4.02</time>
   <time name="total">    4.29    4.38</time>
   <energy>
    <i name="e_fr_energy">   -166.07184009 </i>
    <i name="e_wo_entrp">   -166.06965600 </i>
    <i name="e_0_energy">   -166.07074805 </i>
   </energy>
  </scstep>
  <scstep>
   <time name="dav">    3.91    3.99</time>
   <time name="total">    4.25    4.35</time>
   <energy>
    <i name="e_fr_energy">   -166.07184327 </i>
    <i name="e_wo_entrp">   -166.06965920 </i>
    <i name="e_0_energy">   -166.07075123 </i>
   </energy>
  </scstep>
  <scstep>
   <time name="dav">    3.97    4.06</time>
   <time name="total">    4.05    4.14</time>
   <energy>
    <i name="alphaZ">     28.04858418 </i>
    <i name="ewald">  11638.87675452 </i>
    <i name="hartreedc"> -13861.52444960 </i>
    <i name="XCdc">    247.81446342 </i>
    <i name="pawpsdc">   7452.99954558 </i>
    <i name="pawaedc">  -7465.26298788 </i>
    <i name="eentropy">     -0.00218407 </i>
    <i name="bandstr">   -855.72674954 </i>
    <i name="atom">   2648.70517965 </i>
    <i name="e_fr_energy">   -166.07184372 </i>
    <i name="e_wo_entrp">   -166.06965966 </i>
    <i name="e_0_energy">   -166.07075169 </i>
   </energy>
  </scstep>
  <structure>
   <crystal>
    <varray name="basis" >
     <v>       7.40170591       0.00000000       0.00000000 </v>
     <v>      -3.70085295       6.41006527       0.00000000 </v>
     <v>       0.00000000       0.00000000      20.00000000 </v>
    </varray>
    <i name="volume">    948.90835877 </i>
    <varray name="rec_basis" >
     <v>       0.13510399       0.07800233       0.00000000 </v>
     <v>       0.00000000       0.15600465       0.00000000 </v>
     <v>       0.00000000       0.00000000       0.05000000 </v>
    </varray>
   </crystal>
   <varray name="positions" >
    <v>       0.00078002       0.00156005       0.50000000 </v>
    <v>       0.33198229       0.00000000       0.50000000 </v>
    <v>       0.66666667       0.00000000       0.50000000 </v>
    <v>       0.00000000       0.33333333       0.50000000 </v>
    <v>       0.33333333       0.33333333       0.50000000 </v>
    <v>       0.66666667       0.33333333       0.50000000 </v>
    <v>       0.00000000       0.66666667       0.50000000 </v>
    <v>       0.33333333       0.66666667       0.50000000 </v>
    <v>       0.66666667       0.66666667       0.50000000 </v>
    <v>       0.22222222       0.11111111       0.50000000 </v>
    <v>       0.55555556       0.11111111       0.50000000 </v>
    <v>       0.88888889       0.11111111       0.50000000 </v>
    <v>       0.22222222       0.44444444       0.50000000 </v>
    <v>       0.55555556       0.44444444       0.50000000 </v>
    <v>       0.88888889       0.44444444       0.50000000 </v>
    <v>       0.22222222       0.77777778       0.50000000 </v>
    <v>       0.55555556       0.77777778       0.50000000 </v>
    <v>       0.88888889       0.77777778       0.50000000 </v>
   </varray>
  </structure>
  <varray name="forces" >
   <v>      -0.05143147      -0.60307125       0.00000000 </v>
   <v>       0.61053467      -0.03220641      -0.00000000 </v>
   <v>      -0.06303681      -0.01078929       0.00000000 </v>
   <v>      -0.04943394       0.03243827       0.00000000 </v>
   <v>       0.02478030       0.07748682      -0.00000000 </v>
   <v>       0.00538826      -0.01512056      -0.00000000 </v>
   <v>      -0.03953914       0.01261419      -0.00000000 </v>
   <v>       0.00532117       0.04908901      -0.00000000 </v>
   <v>       0.01495792       0.03169923      -0.00000000 </v>
   <v>      -0.15108538       0.19878414       0.00000000 </v>
   <v>      -0.19701446      -0.07607735       0.00000000 </v>
   <v>      -0.05511986       0.13925425      -0.00000000 </v>
   <v>       0.01883661      -0.02108584      -0.00000000 </v>
   <v>      -0.01105345      -0.00739862      -0.00000000 </v>
   <v>       0.00897190      -0.01747073      -0.00000000 </v>
   <v>      -0.08481668       0.00845917       0.00000000 </v>
   <v>      -0.00432739      -0.01466928      -0.00000000 </v>
   <v>       0.01806775       0.24806425      -0.00000000 </v>
  </varray>
  <varray name="stress" >
   <v>      -0.07405391      -0.06624546       0.00000000 </v>
   <v>      -0.06624546      -0.20814909       0.00000000 </v>
   <v>       0.00000000       0.00000000      -0.56281770 </v>
  </varray>
  <energy>
   <i name="e_fr_energy">   -166.07184372 </i>
   <i name="e_wo_entrp">   -166.06965966 </i>
   <i name="e_0_energy">   -166.07075169 </i>
  </energy>
  <time name="totalsc">  144.06  143.80</time>
  <eigenvalues>
   <array>
    <dimension dim="1">band</dimension>
    <dimension dim="2">kpoint</dimension>
    <dimension dim="3">spin</dimension>
    <field>eigene</field>
    <field>occ</field>
    <set>
     <set comment="spin 1">
      <set comment="kpoint 1">
       <r>  -22.2561    1.0000 </r>
       <r>  -19.7034    1.0000 </r>
       <r>  -19.6849    1.0000 </r>
       <r>  -19.6729    1.0000 </r>
       <r>  -19.6711    1.0000 </r>
       <r>  -19.6641    1.0000 </r>
       <r>  -19.6443    1.0000 </r>
       <r>  -15.3609    1.0000 </r>
       <r>  -15.3449    1.0000 </r>
       <r>  -15.3394    1.0000 </r>
       <r>  -15.3183    1.0000 </r>
       <r>  -13.2911    1.0000 </r>
       <r>  -13.2886    1.0000 </r>
       <r>  -12.4001    1.0000 </r>
       <r>  -12.3917    1.0000 </r>
       <r>  -12.3816    1.0000 </r>
       <r>  -12.3667    1.0000 </r>
       <r>  -12.3590    1.0000 </r>
       <r>  -12.3486    1.0000 </r>
       <r>  -10.3600    1.0000 </r>
       <r>   -8.5600    1.0000 </r>
       <r>   -8.5407    1.0000 </r>
       <r>   -8.5253    1.0000 </r>
       <r>   -8.5199    1.0000 </r>
       <r>   -8.5074    1.0000 </r>
       <r>   -8.4877    1.0000 </r>
       <r>   -7.3973    1.0000 </r>
       <r>   -7.3802    1.0000 </r>
       <r>   -7.3705    1.0000 </r>
       <r>   -7.3692    1.0000 </r>
       <r>   -7.3634    1.0000 </r>
       <r>   -7.3451    1.0000 </r>
       <r>   -5.8073    1.0000 </r>
       <r>   -5.7610    1.0000 </r>
       <r>   -2.7686    0.6469 </r>
       <r>   -2.7633    0.5895 </r>
       <r>   -2.7502    0.4422 </r>
       <r>   -2.7389    0.3215 </r>
       <r>    0.5196    0.0000 </r>
       <r>    1.3118    0.0000 </r>
       <r>    1.6348    0.0000 </r>
       <r>    2.1113    0.0000 </r>
       <r>    2.1343    0.0000 </r>
       <r>    2.1446    0.0000 </r>
       <r>    2.1525    0.0000 </r>
       <r>    2.1786    0.0000 </r>
      </set>
      <set comment="kpoint 2">
       <r>  -22.2025    1.0000 </r>
       <r>  -20.3493    1.0000 </r>
       <r>  -19.9916    1.0000 </r>
       <r>  -19.9775    1.0000 </r>
       <r>  -19.2702    1.0000 </r>
       <r>  -19.2548    1.0000 </r>
       <r>  -18.9058    1.0000 </r>
       <r>  -16.0059    1.0000 </r>
       <r>  -15.9846    1.0000 </r>
       <r>  -14.9248    1.0000 </r>
       <r>  -14.9025    1.0000 </r>
       <r>  -13.5958    1.0000 </r>
       <r>  -12.9803    1.0000 </r>
       <r>  -12.9713    1.0000 </r>
       <r>  -12.9581    1.0000 </r>
       <r>  -12.9450    1.0000 </r>
       <r>  -11.7440    1.0000 </r>
       <r>  -11.7290    1.0000 </r>
       <r>  -11.1149    1.0000 </r>
       <r>  -10.2960    1.0000 </r>
       <r>   -8.8779    1.0000 </r>
       <r>   -8.8526    1.0000 </r>
       <r>   -8.8276    1.0000 </r>
       <r>   -8.5199    1.0000 </r>
       <r>   -8.4941    1.0000 </r>
       <r>   -8.1344    1.0000 </r>
       <r>   -8.1278    1.0000 </r>
       <r>   -7.7204    1.0000 </r>
       <r>   -7.7061    1.0000 </r>
       <r>   -6.9299    1.0000 </r>
       <r>   -6.9149    1.0000 </r>
       <r>   -6.5579    1.0000 </r>
       <r>   -6.0036    1.0000 </r>
       <r>   -5.9006    1.0000 </r>
       <r>   -3.5361    1.0000 </r>
       <r>   -3.5169    1.0000 </r>
       <r>   -2.0158    0.0000 </r>
       <r>   -1.9937    0.0000 </r>
       <r>    0.5922    0.0000 </r>
       <r>    0.8777    0.0000 </r>
       <r>    1.3854    0.0000 </r>
       <r>    1.4617    0.0000 </r>
       <r>    1.4842    0.0000 </r>
       <r>    1.7093    0.0000 </r>
       <r>    2.6300    0.0000 </r>
       <r>    2.7497    0.0000 </r>
      </set>
      <set comment="kpoint 3">
       <r>  -22.2025    1.0000 </r>
       <r>  -20.3492    1.0000 </r>
       <r>  -19.9934    1.0000 </r>
       <r>  -19.9758    1.0000 </r>
       <r>  -19.2717    1.0000 </r>
       <r>  -19.2533    1.0000 </r>
       <r>  -18.9057    1.0000 </r>
       <r>  -16.0060    1.0000 </r>
       <r>  -15.9841    1.0000 </r>
       <r>  -14.9227    1.0000 </r>
       <r>  -14.9056    1.0000 </r>
       <r>  -13.5926    1.0000 </r>
       <r>  -12.9821    1.0000 </r>
       <r>  -12.9704    1.0000 </r>
       <r>  -12.9579    1.0000 </r>
       <r>  -12.9466    1.0000 </r>
       <r>  -11.7449    1.0000 </r>
       <r>  -11.7333    1.0000 </r>
       <r>  -11.1103    1.0000 </r>
       <r>  -10.2961    1.0000 </r>
       <r>   -8.8739    1.0000 </r>
       <r>   -8.8520    1.0000 </r>
       <r>   -8.8328    1.0000 </r>
       <r>   -8.5141    1.0000 </r>
       <r>   -8.4936    1.0000 </r>
       <r>   -8.1401    1.0000 </r>
       <r>   -8.1286    1.0000 </r>
       <r>   -7.7209    1.0000 </r>
       <r>   -7.7043    1.0000 </r>
       <r>   -6.9300    1.0000 </r>
       <r>   -6.9136    1.0000 </r>
       <r>   -6.5600    1.0000 </r>
       <r>   -5.9919    1.0000 </r>
       <r>   -5.9124    1.0000 </r>
       <r>   -3.5340    1.0000 </r>
       <r>   -3.5187    1.0000 </r>
       <r>   -2.0130    0.0000 </r>
       <r>   -1.9969    0.0000 </r>
       <r>    0.5922    0.0000 </r>
       <r>    0.8826    0.0000 </r>
       <r>    1.3854    0.0000 </r>
       <r>    1.4606    0.0000 </r>
       <r>    1.4823    0.0000 </r>
       <r>    1.7093    0.0000 </r>
       <r>    2.6300    0.0000 </r>
       <r>    2.7464    0.0000 </r>
      </set>
      <set comment="kpoint 4">
       <r>  -22.2025    1.0000 </r>
       <r>  -20.3498    1.0000 </r>
       <r>  -19.9943    1.0000 </r>
       <r>  -19.9739    1.0000 </r>
       <r>  -19.2729    1.0000 </r>
       <r>  -19.2519    1.0000 </r>
       <r>  -18.9061    1.0000 </r>
       <r>  -16.0074    1.0000 </r>
       <r>  -15.9846    1.0000 </r>
       <r>  -14.9171    1.0000 </r>
       <r>  -14.9072    1.0000 </r>
       <r>  -13.6054    1.0000 </r>
       <r>  -12.9749    1.0000 </r>
       <r>  -12.9691    1.0000 </r>
       <r>  -12.9566    1.0000 </r>
       <r>  -12.9467    1.0000 </r>
       <r>  -11.7332    1.0000 </r>
       <r>  -11.7268    1.0000 </r>
       <r>  -11.1268    1.0000 </r>
       <r>  -10.2960    1.0000 </r>
       <r>   -8.8791    1.0000 </r>
       <r>   -8.8623    1.0000 </r>
       <r>   -8.8154    1.0000 </r>
       <r>   -8.5212    1.0000 </r>
       <r>   -8.5105    1.0000 </r>
       <r>   -8.1257    1.0000 </r>
       <r>   -8.1183    1.0000 </r>
       <r>   -7.7242    1.0000 </r>
       <r>   -7.7057    1.0000 </r>
       <r>   -6.9329    1.0000 </r>
       <r>   -6.9152    1.0000 </r>
       <r>   -6.5525    1.0000 </r>
       <r>   -6.0260    1.0000 </r>
       <r>   -5.8780    1.0000 </r>
       <r>   -3.5320    1.0000 </r>
       <r>   -3.5221    1.0000 </r>
       <r>   -2.0071    0.0000 </r>
       <r>   -2.0011    0.0000 </r>
       <r>    0.5922    0.0000 </r>
       <r>    0.8643    0.0000 </r>
       <r>    1.3854    0.0000 </r>
       <r>    1.4669    0.0000 </r>
       <r>    1.4877    0.0000 </r>
       <r>    1.7093    0.0000 </r>
       <r>    2.6300    0.0000 </r>
       <r>    2.7540    0.0000 </r>
      </set>
      <set comment="kpoint 5">
       <r>  -22.0420    1.0000 </r>
       <r>  -20.9267    1.0000 </r>
       <r>  -20.2000    1.0000 </r>
       <r>  -20.1859    1.0000 </r>
       <r>  -18.7634    1.0000 </r>
       <r>  -18.7475    1.0000 </r>
       <r>  -18.0630    1.0000 </r>
       <r>  -16.7547    1.0000 </r>
       <r>  -16.7353    1.0000 </r>
       <r>  -14.7524    1.0000 </r>
       <r>  -14.6340    1.0000 </r>
       <r>  -14.6150    1.0000 </r>
       <r>  -13.5072    1.0000 </r>
       <r>  -13.4932    1.0000 </r>
       <r>  -12.1932    1.0000 </r>
       <r>  -12.1738    1.0000 </r>
       <r>  -11.1073    1.0000 </r>
       <r>  -11.0930    1.0000 </r>
       <r>  -10.1048    1.0000 </r>
       <r>   -9.8577    1.0000 </r>
       <r>   -9.5077    1.0000 </r>
       <r>   -9.4804    1.0000 </r>
       <r>   -9.0411    1.0000 </r>
       <r>   -8.7921    1.0000 </r>
       <r>   -8.7695    1.0000 </r>
       <r>   -8.7468    1.0000 </r>
       <r>   -7.9516    1.0000 </r>
       <r>   -7.9373    1.0000 </r>
       <r>   -7.6749    1.0000 </r>
       <r>   -6.6180    1.0000 </r>
       <r>   -6.3849    1.0000 </r>
       <r>   -6.3696    1.0000 </r>
       <r>   -6.2206    1.0000 </r>
       <r>   -5.7667    1.0000 </r>
       <r>   -4.3077    1.0000 </r>
       <r>   -4.2897    1.0000 </r>
       <r>   -1.2946    0.0000 </r>
       <r>   -1.2716    0.0000 </r>
       <r>   -0.2342    0.0000 </r>
       <r>    0.7758    0.0000 </r>
       <r>    0.7987    0.0000 </r>
       <r>    0.8102    0.0000 </r>
       <r>    1.6061    0.0000 </r>
       <r>    1.9327    0.0000 </r>
       <r>    2.3340    0.0000 </r>
       <r>    2.8514    0.0000 </r>
      </set>
      <set comment="kpoint 6">
       <r>  -22.0419    1.0000 </r>
       <r>  -20.9266    1.0000 </r>
       <r>  -20.2018    1.0000 </r>
       <r>  -20.1843    1.0000 </r>
       <r>  -18.7648    1.0000 </r>
       <r>  -18.7459    1.0000 </r>
       <r>  -18.0632    1.0000 </r>
       <r>  -16.7555    1.0000 </r>
       <r>  -16.7341    1.0000 </r>
       <r>  -14.7489    1.0000 </r>
       <r>  -14.6326    1.0000 </r>
       <r>  -14.6182    1.0000 </r>
       <r>  -13.5071    1.0000 </r>
       <r>  -13.4961    1.0000 </r>
       <r>  -12.1912    1.0000 </r>
       <r>  -12.1742    1.0000 </r>
       <r>  -11.1094    1.0000 </r>
       <r>  -11.0981    1.0000 </r>
       <r>  -10.1049    1.0000 </r>
       <r>   -9.8523    1.0000 </r>
       <r>   -9.5038    1.0000 </r>
       <r>   -9.4805    1.0000 </r>
       <r>   -9.0461    1.0000 </r>
       <r>   -8.7926    1.0000 </r>
       <r>   -8.7626    1.0000 </r>
       <r>   -8.7451    1.0000 </r>
       <r>   -7.9521    1.0000 </r>
       <r>   -7.9354    1.0000 </r>
       <r>   -7.6813    1.0000 </r>
       <r>   -6.6085    1.0000 </r>
       <r>   -6.3848    1.0000 </r>
       <r>   -6.3687    1.0000 </r>
       <r>   -6.2305    1.0000 </r>
       <r>   -5.7700    1.0000 </r>
       <r>   -4.3061    1.0000 </r>
       <r>   -4.2907    1.0000 </r>
       <r>   -1.2921    0.0000 </r>
       <r>   -1.2751    0.0000 </r>
       <r>   -0.2279    0.0000 </r>
       <r>    0.7756    0.0000 </r>
       <r>    0.7963    0.0000 </r>
       <r>    0.8102    0.0000 </r>
       <r>    1.6061    0.0000 </r>
       <r>    1.9327    0.0000 </r>
       <r>    2.3340    0.0000 </r>
       <r>    2.8514    0.0000 </r>
      </set>
      <set comment="kpoint 7">
       <r>  -22.0420    1.0000 </r>
       <r>  -20.9271    1.0000 </r>
       <r>  -20.2026    1.0000 </r>
       <r>  -20.1824    1.0000 </r>
       <r>  -18.7662    1.0000 </r>
       <r>  -18.7447    1.0000 </r>
       <r>  -18.0626    1.0000 </r>
       <r>  -16.7573    1.0000 </r>
       <r>  -16.7342    1.0000 </r>
       <r>  -14.7612    1.0000 </r>
       <r>  -14.6247    1.0000 </r>
       <r>  -14.6198    1.0000 </r>
       <r>  -13.4993    1.0000 </r>
       <r>  -13.4935    1.0000 </r>
       <r>  -12.1928    1.0000 </r>
       <r>  -12.1783    1.0000 </r>
       <r>  -11.0938    1.0000 </r>
       <r>  -11.0872    1.0000 </r>
       <r>  -10.1046    1.0000 </r>
       <r>   -9.8718    1.0000 </r>
       <r>   -9.5091    1.0000 </r>
       <r>   -9.4896    1.0000 </r>
       <r>   -9.0280    1.0000 </r>
       <r>   -8.7908    1.0000 </r>
       <r>   -8.7741    1.0000 </r>
       <r>   -8.7655    1.0000 </r>
       <r>   -7.9556    1.0000 </r>
       <r>   -7.9368    1.0000 </r>
       <r>   -7.6572    1.0000 </r>
       <r>   -6.6410    1.0000 </r>
       <r>   -6.3873    1.0000 </r>
       <r>   -6.3703    1.0000 </r>
       <r>   -6.1965    1.0000 </r>
       <r>   -5.7580    1.0000 </r>
       <r>   -4.3059    1.0000 </r>
       <r>   -4.2934    1.0000 </r>
       <r>   -1.2857    0.0000 </r>
       <r>   -1.2780    0.0000 </r>
       <r>   -0.2512    0.0000 </r>
       <r>    0.7817    0.0000 </r>
       <r>    0.7997    0.0000 </r>
       <r>    0.8102    0.0000 </r>
       <r>    1.6061    0.0000 </r>
       <r>    1.9327    0.0000 </r>
       <r>    2.3341    0.0000 </r>
       <r>    2.8514    0.0000 </r>
      </set>
      <set comment="kpoint 8">
       <r>  -21.7752    1.0000 </r>
       <r>  -21.4027    1.0000 </r>
       <r>  -20.3045    1.0000 </r>
       <r>  -20.2905    1.0000 </r>
       <r>  -18.1667    1.0000 </r>
       <r>  -18.1503    1.0000 </r>
       <r>  -17.4902    1.0000 </r>
       <r>  -17.4722    1.0000 </r>
       <r>  -17.2295    1.0000 </r>
       <r>  -15.7431    1.0000 </r>
       <r>  -14.3313    1.0000 </r>
       <r>  -14.3152    1.0000 </r>
       <r>  -13.9587    1.0000 </r>
       <r>  -13.9441    1.0000 </r>
       <r>  -11.2696    1.0000 </r>
       <r>  -11.2469    1.0000 </r>
       <r>  -10.6052    1.0000 </r>
       <r>  -10.5967    1.0000 </r>
       <r>  -10.3389    1.0000 </r>
       <r>  -10.3144    1.0000 </r>
       <r>   -9.7880    1.0000 </r>
       <r>   -9.3485    1.0000 </r>
       <r>   -9.1490    1.0000 </r>
       <r>   -9.0931    1.0000 </r>
       <r>   -9.0778    1.0000 </r>
       <r>   -8.6422    1.0000 </r>
       <r>   -8.0680    1.0000 </r>
       <r>   -8.0537    1.0000 </r>
       <r>   -7.5341    1.0000 </r>
       <r>   -7.1730    1.0000 </r>
       <r>   -6.6677    1.0000 </r>
       <r>   -5.7549    1.0000 </r>
       <r>   -5.7392    1.0000 </r>
       <r>   -5.2010    1.0000 </r>
       <r>   -5.0552    1.0000 </r>
       <r>   -5.0380    1.0000 </r>
       <r>   -0.9657    0.0000 </r>
       <r>   -0.5972    0.0000 </r>
       <r>   -0.5736    0.0000 </r>
       <r>    0.0902    0.0000 </r>
       <r>    0.1134    0.0000 </r>
       <r>    1.1734    0.0000 </r>
       <r>    1.6816    0.0000 </r>
       <r>    1.9735    0.0000 </r>
       <r>    2.3051    0.0000 </r>
       <r>    2.4864    0.0000 </r>
      </set>
      <set comment="kpoint 9">
       <r>  -21.7751    1.0000 </r>
       <r>  -21.4027    1.0000 </r>
       <r>  -20.3063    1.0000 </r>
       <r>  -20.2889    1.0000 </r>
       <r>  -18.1680    1.0000 </r>
       <r>  -18.1486    1.0000 </r>
       <r>  -17.4914    1.0000 </r>
       <r>  -17.4715    1.0000 </r>
       <r>  -17.2303    1.0000 </r>
       <r>  -15.7386    1.0000 </r>
       <r>  -14.3301    1.0000 </r>
       <r>  -14.3183    1.0000 </r>
       <r>  -13.9584    1.0000 </r>
       <r>  -13.9472    1.0000 </r>
       <r>  -11.2672    1.0000 </r>
       <r>  -11.2470    1.0000 </r>
       <r>  -10.6108    1.0000 </r>
       <r>  -10.6026    1.0000 </r>
       <r>  -10.3359    1.0000 </r>
       <r>  -10.3141    1.0000 </r>
       <r>   -9.7881    1.0000 </r>
       <r>   -9.3488    1.0000 </r>
       <r>   -9.1540    1.0000 </r>
       <r>   -9.0847    1.0000 </r>
       <r>   -9.0734    1.0000 </r>
       <r>   -8.6357    1.0000 </r>
       <r>   -8.0686    1.0000 </r>
       <r>   -8.0518    1.0000 </r>
       <r>   -7.5265    1.0000 </r>
       <r>   -7.1799    1.0000 </r>
       <r>   -6.6764    1.0000 </r>
       <r>   -5.7543    1.0000 </r>
       <r>   -5.7386    1.0000 </r>
       <r>   -5.2062    1.0000 </r>
       <r>   -5.0541    1.0000 </r>
       <r>   -5.0378    1.0000 </r>
       <r>   -0.9586    0.0000 </r>
       <r>   -0.5946    0.0000 </r>
       <r>   -0.5767    0.0000 </r>
       <r>    0.0909    0.0000 </r>
       <r>    0.1104    0.0000 </r>
       <r>    1.1734    0.0000 </r>
       <r>    1.6816    0.0000 </r>
       <r>    1.9735    0.0000 </r>
       <r>    2.3051    0.0000 </r>
       <r>    2.4864    0.0000 </r>
      </set>
      <set comment="kpoint 10">
       <r>  -21.7753    1.0000 </r>
       <r>  -21.4030    1.0000 </r>
       <r>  -20.3071    1.0000 </r>
       <r>  -20.2870    1.0000 </r>
       <r>  -18.1696    1.0000 </r>
       <r>  -18.1476    1.0000 </r>
       <r>  -17.4931    1.0000 </r>
       <r>  -17.4705    1.0000 </r>
       <r>  -17.2255    1.0000 </r>
       <r>  -15.7557    1.0000 </r>
       <r>  -14.3223    1.0000 </r>
       <r>  -14.3176    1.0000 </r>
       <r>  -13.9509    1.0000 </r>
       <r>  -13.9455    1.0000 </r>
       <r>  -11.2702    1.0000 </r>
       <r>  -11.2525    1.0000 </r>
       <r>  -10.5888    1.0000 </r>
       <r>  -10.5821    1.0000 </r>
       <r>  -10.3403    1.0000 </r>
       <r>  -10.3214    1.0000 </r>
       <r>   -9.7876    1.0000 </r>
       <r>   -9.3478    1.0000 </r>
       <r>   -9.1401    1.0000 </r>
       <r>   -9.1043    1.0000 </r>
       <r>   -9.0980    1.0000 </r>
       <r>   -8.6589    1.0000 </r>
       <r>   -8.0721    1.0000 </r>
       <r>   -8.0532    1.0000 </r>
       <r>   -7.5546    1.0000 </r>
       <r>   -7.1525    1.0000 </r>
       <r>   -6.6460    1.0000 </r>
       <r>   -5.7562    1.0000 </r>
       <r>   -5.7404    1.0000 </r>
       <r>   -5.1884    1.0000 </r>
       <r>   -5.0551    1.0000 </r>
       <r>   -5.0405    1.0000 </r>
       <r>   -0.9870    0.0000 </r>
       <r>   -0.5886    0.0000 </r>
       <r>   -0.5777    0.0000 </r>
       <r>    0.0970    0.0000 </r>
       <r>    0.1116    0.0000 </r>
       <r>    1.1735    0.0000 </r>
       <r>    1.6817    0.0000 </r>
       <r>    1.9736    0.0000 </r>
       <r>    2.3052    0.0000 </r>
       <r>    2.4866    0.0000 </r>
      </set>
      <set comment="kpoint 11">
       <r>  -22.0954    1.0000 </r>
       <r>  -20.6161    1.0000 </r>
       <r>  -20.6061    1.0000 </r>
       <r>  -19.5265    1.0000 </r>
       <r>  -19.5131    1.0000 </r>
       <r>  -18.4599    1.0000 </r>
       <r>  -18.4497    1.0000 </r>
       <r>  -16.7796    1.0000 </r>
       <r>  -16.1550    1.0000 </r>
       <r>  -15.2542    1.0000 </r>
       <r>  -14.2483    1.0000 </r>
       <r>  -14.1623    1.0000 </r>
       <r>  -14.1453    1.0000 </r>
       <r>  -12.6139    1.0000 </r>
       <r>  -12.3207    1.0000 </r>
       <r>  -12.3115    1.0000 </r>
       <r>  -12.2618    1.0000 </r>
       <r>  -10.4925    1.0000 </r>
       <r>  -10.4733    1.0000 </r>
       <r>  -10.1685    1.0000 </r>
       <r>   -9.1749    1.0000 </r>
       <r>   -9.1654    1.0000 </r>
       <r>   -9.1315    1.0000 </r>
       <r>   -9.1177    1.0000 </r>
       <r>   -8.4305    1.0000 </r>
       <r>   -8.4226    1.0000 </r>
       <r>   -8.0881    1.0000 </r>
       <r>   -8.0701    1.0000 </r>
       <r>   -7.1945    1.0000 </r>
       <r>   -7.1823    1.0000 </r>
       <r>   -6.3873    1.0000 </r>
       <r>   -6.1525    1.0000 </r>
       <r>   -6.1114    1.0000 </r>
       <r>   -6.1036    1.0000 </r>
       <r>   -4.2640    1.0000 </r>
       <r>   -3.8889    1.0000 </r>
       <r>   -1.7246    0.0000 </r>
       <r>   -1.2557    0.0000 </r>
       <r>    0.2744    0.0000 </r>
       <r>    0.2856    0.0000 </r>
       <r>    0.7375    0.0000 </r>
       <r>    1.5326    0.0000 </r>
       <r>    1.8582    0.0000 </r>
       <r>    1.9960    0.0000 </r>
       <r>    2.0122    0.0000 </r>
       <r>    2.7776    0.0000 </r>
      </set>
      <set comment="kpoint 12">
       <r>  -22.0954    1.0000 </r>
       <r>  -20.6191    1.0000 </r>
       <r>  -20.6033    1.0000 </r>
       <r>  -19.5300    1.0000 </r>
       <r>  -19.5088    1.0000 </r>
       <r>  -18.4632    1.0000 </r>
       <r>  -18.4467    1.0000 </r>
       <r>  -16.7788    1.0000 </r>
       <r>  -16.1633    1.0000 </r>
       <r>  -15.2369    1.0000 </r>
       <r>  -14.2582    1.0000 </r>
       <r>  -14.1729    1.0000 </r>
       <r>  -14.1456    1.0000 </r>
       <r>  -12.6026    1.0000 </r>
       <r>  -12.3132    1.0000 </r>
       <r>  -12.3023    1.0000 </r>
       <r>  -12.2675    1.0000 </r>
       <r>  -10.5052    1.0000 </r>
       <r>  -10.4699    1.0000 </r>
       <r>  -10.1684    1.0000 </r>
       <r>   -9.1947    1.0000 </r>
       <r>   -9.1679    1.0000 </r>
       <r>   -9.1332    1.0000 </r>
       <r>   -9.1073    1.0000 </r>
       <r>   -8.4324    1.0000 </r>
       <r>   -8.4198    1.0000 </r>
       <r>   -8.0914    1.0000 </r>
       <r>   -8.0549    1.0000 </r>
       <r>   -7.2013    1.0000 </r>
       <r>   -7.1818    1.0000 </r>
       <r>   -6.4148    1.0000 </r>
       <r>   -6.1243    1.0000 </r>
       <r>   -6.1110    1.0000 </r>
       <r>   -6.0962    1.0000 </r>
       <r>   -4.2563    1.0000 </r>
       <r>   -3.9021    1.0000 </r>
       <r>   -1.7067    0.0000 </r>
       <r>   -1.2677    0.0000 </r>
       <r>    0.2589    0.0000 </r>
       <r>    0.2837    0.0000 </r>
       <r>    0.7375    0.0000 </r>
       <r>    1.5326    0.0000 </r>
       <r>    1.8583    0.0000 </r>
       <r>    2.0009    0.0000 </r>
       <r>    2.0271    0.0000 </r>
       <r>    2.7776    0.0000 </r>
      </set>
      <set comment="kpoint 13">
       <r>  -22.0955    1.0000 </r>
       <r>  -20.6178    1.0000 </r>
       <r>  -20.6046    1.0000 </r>
       <r>  -19.5282    1.0000 </r>
       <r>  -19.5103    1.0000 </r>
       <r>  -18.4618    1.0000 </r>
       <r>  -18.4481    1.0000 </r>
       <r>  -16.7784    1.0000 </r>
       <r>  -16.1665    1.0000 </r>
       <r>  -15.2305    1.0000 </r>
       <r>  -14.2631    1.0000 </r>
       <r>  -14.1708    1.0000 </r>
       <r>  -14.1505    1.0000 </r>
       <r>  -12.5988    1.0000 </r>
       <r>  -12.3104    1.0000 </r>
       <r>  -12.2946    1.0000 </r>
       <r>  -12.2737    1.0000 </r>
       <r>  -10.5035    1.0000 </r>
       <r>  -10.4750    1.0000 </r>
       <r>  -10.1684    1.0000 </r>
       <r>   -9.2002    1.0000 </r>
       <r>   -9.1732    1.0000 </r>
       <r>   -9.1283    1.0000 </r>
       <r>   -9.1067    1.0000 </r>
       <r>   -8.4312    1.0000 </r>
       <r>   -8.4207    1.0000 </r>
       <r>   -8.0854    1.0000 </r>
       <r>   -8.0565    1.0000 </r>
       <r>   -7.2009    1.0000 </r>
       <r>   -7.1846    1.0000 </r>
       <r>   -6.4239    1.0000 </r>
       <r>   -6.1149    1.0000 </r>
       <r>   -6.1080    1.0000 </r>
       <r>   -6.0963    1.0000 </r>
       <r>   -4.2533    1.0000 </r>
       <r>   -3.9069    1.0000 </r>
       <r>   -1.7001    0.0000 </r>
       <r>   -1.2722    0.0000 </r>
       <r>    0.2587    0.0000 </r>
       <r>    0.2776    0.0000 </r>
       <r>    0.7375    0.0000 </r>
       <r>    1.5326    0.0000 </r>
       <r>    1.8583    0.0000 </r>
       <r>    2.0067    0.0000 </r>
       <r>    2.0286    0.0000 </r>
       <r>    2.7776    0.0000 </r>
      </set>
      <set comment="kpoint 14">
       <r>  -21.8818    1.0000 </r>
       <r>  -21.1380    1.0000 </r>
       <r>  -20.7688    1.0000 </r>
       <r>  -19.6748    1.0000 </r>
       <r>  -18.9585    1.0000 </r>
       <r>  -17.9172    1.0000 </r>
       <r>  -17.5953    1.0000 </r>
       <r>  -17.5713    1.0000 </r>
       <r>  -16.6674    1.0000 </r>
       <r>  -15.2659    1.0000 </r>
       <r>  -15.2468    1.0000 </r>
       <r>  -14.6291    1.0000 </r>
       <r>  -13.7179    1.0000 </r>
       <r>  -12.8299    1.0000 </r>
       <r>  -11.9096    1.0000 </r>
       <r>  -11.6902    1.0000 </r>
       <r>  -11.3799    1.0000 </r>
       <r>  -10.0297    1.0000 </r>
       <r>   -9.9145    1.0000 </r>
       <r>   -9.9131    1.0000 </r>
       <r>   -9.7185    1.0000 </r>
       <r>   -9.6207    1.0000 </r>
       <r>   -9.2871    1.0000 </r>
       <r>   -9.2618    1.0000 </r>
       <r>   -9.0376    1.0000 </r>
       <r>   -8.6071    1.0000 </r>
       <r>   -8.2632    1.0000 </r>
       <r>   -7.5791    1.0000 </r>
       <r>   -7.3529    1.0000 </r>
       <r>   -7.1278    1.0000 </r>
       <r>   -6.5643    1.0000 </r>
       <r>   -6.5614    1.0000 </r>
       <r>   -5.5874    1.0000 </r>
       <r>   -5.3882    1.0000 </r>
       <r>   -5.0790    1.0000 </r>
       <r>   -4.4228    1.0000 </r>
       <r>   -1.3118    0.0000 </r>
       <r>   -0.6807    0.0000 </r>
       <r>   -0.4162    0.0000 </r>
       <r>   -0.2858    0.0000 </r>
       <r>    1.0282    0.0000 </r>
       <r>    1.2153    0.0000 </r>
       <r>    1.8266    0.0000 </r>
       <r>    2.0447    0.0000 </r>
       <r>    2.1562    0.0000 </r>
       <r>    2.3983    0.0000 </r>
      </set>
      <set comment="kpoint 15">
       <r>  -21.8818    1.0000 </r>
       <r>  -21.1379    1.0000 </r>
       <r>  -20.7690    1.0000 </r>
       <r>  -19.6748    1.0000 </r>
       <r>  -18.9578    1.0000 </r>
       <r>  -17.9165    1.0000 </r>
       <r>  -17.5978    1.0000 </r>
       <r>  -17.5696    1.0000 </r>
       <r>  -16.6720    1.0000 </r>
       <r>  -15.2568    1.0000 </r>
       <r>  -15.2379    1.0000 </r>
       <r>  -14.6421    1.0000 </r>
       <r>  -13.7330    1.0000 </r>
       <r>  -12.8164    1.0000 </r>
       <r>  -11.8931    1.0000 </r>
       <r>  -11.6854    1.0000 </r>
       <r>  -11.3913    1.0000 </r>
       <r>  -10.0473    1.0000 </r>
       <r>   -9.9291    1.0000 </r>
       <r>   -9.9144    1.0000 </r>
       <r>   -9.7014    1.0000 </r>
       <r>   -9.6267    1.0000 </r>
       <r>   -9.2910    1.0000 </r>
       <r>   -9.2507    1.0000 </r>
       <r>   -9.0384    1.0000 </r>
       <r>   -8.6058    1.0000 </r>
       <r>   -8.2443    1.0000 </r>
       <r>   -7.5920    1.0000 </r>
       <r>   -7.3535    1.0000 </r>
       <r>   -7.1391    1.0000 </r>
       <r>   -6.5698    1.0000 </r>
       <r>   -6.5494    1.0000 </r>
       <r>   -5.5753    1.0000 </r>
       <r>   -5.3916    1.0000 </r>
       <r>   -5.0714    1.0000 </r>
       <r>   -4.4365    1.0000 </r>
       <r>   -1.2909    0.0000 </r>
       <r>   -0.6753    0.0000 </r>
       <r>   -0.4292    0.0000 </r>
       <r>   -0.3102    0.0000 </r>
       <r>    1.0282    0.0000 </r>
       <r>    1.2309    0.0000 </r>
       <r>    1.8267    0.0000 </r>
       <r>    2.0446    0.0000 </r>
       <r>    2.1562    0.0000 </r>
       <r>    2.3997    0.0000 </r>
      </set>
      <set comment="kpoint 16">
       <r>  -21.8819    1.0000 </r>
       <r>  -21.1383    1.0000 </r>
       <r>  -20.7686    1.0000 </r>
       <r>  -19.6742    1.0000 </r>
       <r>  -18.9582    1.0000 </r>
       <r>  -17.9171    1.0000 </r>
       <r>  -17.5955    1.0000 </r>
       <r>  -17.5699    1.0000 </r>
       <r>  -16.6737    1.0000 </r>
       <r>  -15.2629    1.0000 </r>
       <r>  -15.2419    1.0000 </r>
       <r>  -14.6332    1.0000 </r>
       <r>  -13.7312    1.0000 </r>
       <r>  -12.8171    1.0000 </r>
       <r>  -11.8950    1.0000 </r>
       <r>  -11.6725    1.0000 </r>
       <r>  -11.3943    1.0000 </r>
       <r>  -10.0462    1.0000 </r>
       <r>   -9.9141    1.0000 </r>
       <r>   -9.9077    1.0000 </r>
       <r>   -9.7137    1.0000 </r>
       <r>   -9.6411    1.0000 </r>
       <r>   -9.2826    1.0000 </r>
       <r>   -9.2647    1.0000 </r>
       <r>   -9.0370    1.0000 </r>
       <r>   -8.6077    1.0000 </r>
       <r>   -8.2687    1.0000 </r>
       <r>   -7.5655    1.0000 </r>
       <r>   -7.3565    1.0000 </r>
       <r>   -7.1600    1.0000 </r>
       <r>   -6.5687    1.0000 </r>
       <r>   -6.5273    1.0000 </r>
       <r>   -5.5826    1.0000 </r>
       <r>   -5.3771    1.0000 </r>
       <r>   -5.0713    1.0000 </r>
       <r>   -4.4389    1.0000 </r>
       <r>   -1.2873    0.0000 </r>
       <r>   -0.7011    0.0000 </r>
       <r>   -0.4294    0.0000 </r>
       <r>   -0.2963    0.0000 </r>
       <r>    1.0282    0.0000 </r>
       <r>    1.2271    0.0000 </r>
       <r>    1.8267    0.0000 </r>
       <r>    2.0446    0.0000 </r>
       <r>    2.1562    0.0000 </r>
       <r>    2.4111    0.0000 </r>
      </set>
      <set comment="kpoint 17">
       <r>  -21.8818    1.0000 </r>
       <r>  -21.1384    1.0000 </r>
       <r>  -20.7685    1.0000 </r>
       <r>  -19.6743    1.0000 </r>
       <r>  -18.9583    1.0000 </r>
       <r>  -17.9174    1.0000 </r>
       <r>  -17.5923    1.0000 </r>
       <r>  -17.5731    1.0000 </r>
       <r>  -16.6719    1.0000 </r>
       <r>  -15.2639    1.0000 </r>
       <r>  -15.2461    1.0000 </r>
       <r>  -14.6295    1.0000 </r>
       <r>  -13.7263    1.0000 </r>
       <r>  -12.8217    1.0000 </r>
       <r>  -11.8999    1.0000 </r>
       <r>  -11.6756    1.0000 </r>
       <r>  -11.3901    1.0000 </r>
       <r>  -10.0402    1.0000 </r>
       <r>   -9.9142    1.0000 </r>
       <r>   -9.9047    1.0000 </r>
       <r>   -9.7175    1.0000 </r>
       <r>   -9.6384    1.0000 </r>
       <r>   -9.2851    1.0000 </r>
       <r>   -9.2637    1.0000 </r>
       <r>   -9.0369    1.0000 </r>
       <r>   -8.6079    1.0000 </r>
       <r>   -8.2732    1.0000 </r>
       <r>   -7.5634    1.0000 </r>
       <r>   -7.3561    1.0000 </r>
       <r>   -7.1545    1.0000 </r>
       <r>   -6.5668    1.0000 </r>
       <r>   -6.5331    1.0000 </r>
       <r>   -5.5861    1.0000 </r>
       <r>   -5.3770    1.0000 </r>
       <r>   -5.0741    1.0000 </r>
       <r>   -4.4340    1.0000 </r>
       <r>   -1.2947    0.0000 </r>
       <r>   -0.7000    0.0000 </r>
       <r>   -0.4261    0.0000 </r>
       <r>   -0.2888    0.0000 </r>
       <r>    1.0282    0.0000 </r>
       <r>    1.2221    0.0000 </r>
       <r>    1.8267    0.0000 </r>
       <r>    2.0447    0.0000 </r>
       <r>    2.1562    0.0000 </r>
       <r>    2.4097    0.0000 </r>
      </set>
      <set comment="kpoint 18">
       <r>  -21.8817    1.0000 </r>
       <r>  -21.1380    1.0000 </r>
       <r>  -20.7690    1.0000 </r>
       <r>  -19.6749    1.0000 </r>
       <r>  -18.9584    1.0000 </r>
       <r>  -17.9168    1.0000 </r>
       <r>  -17.5985    1.0000 </r>
       <r>  -17.5688    1.0000 </r>
       <r>  -16.6674    1.0000 </r>
       <r>  -15.2636    1.0000 </r>
       <r>  -15.2450    1.0000 </r>
       <r>  -14.6324    1.0000 </r>
       <r>  -13.7197    1.0000 </r>
       <r>  -12.8287    1.0000 </r>
       <r>  -11.9075    1.0000 </r>
       <r>  -11.6928    1.0000 </r>
       <r>  -11.3805    1.0000 </r>
       <r>  -10.0309    1.0000 </r>
       <r>   -9.9202    1.0000 </r>
       <r>   -9.9146    1.0000 </r>
       <r>   -9.7146    1.0000 </r>
       <r>   -9.6173    1.0000 </r>
       <r>   -9.2916    1.0000 </r>
       <r>   -9.2551    1.0000 </r>
       <r>   -9.0380    1.0000 </r>
       <r>   -8.6065    1.0000 </r>
       <r>   -8.2556    1.0000 </r>
       <r>   -7.5867    1.0000 </r>
       <r>   -7.3522    1.0000 </r>
       <r>   -7.1232    1.0000 </r>
       <r>   -6.5662    1.0000 </r>
       <r>   -6.5651    1.0000 </r>
       <r>   -5.5844    1.0000 </r>
       <r>   -5.3923    1.0000 </r>
       <r>   -5.0782    1.0000 </r>
       <r>   -4.4235    1.0000 </r>
       <r>   -1.3108    0.0000 </r>
       <r>   -0.6742    0.0000 </r>
       <r>   -0.4167    0.0000 </r>
       <r>   -0.2918    0.0000 </r>
       <r>    1.0282    0.0000 </r>
       <r>    1.2177    0.0000 </r>
       <r>    1.8266    0.0000 </r>
       <r>    2.0447    0.0000 </r>
       <r>    2.1562    0.0000 </r>
       <r>    2.5527    0.0000 </r>
      </set>
      <set comment="kpoint 19">
       <r>  -21.8818    1.0000 </r>
       <r>  -21.1379    1.0000 </r>
       <r>  -20.7690    1.0000 </r>
       <r>  -19.6746    1.0000 </r>
       <r>  -18.9578    1.0000 </r>
       <r>  -17.9167    1.0000 </r>
       <r>  -17.5958    1.0000 </r>
       <r>  -17.5708    1.0000 </r>
       <r>  -16.6738    1.0000 </r>
       <r>  -15.2550    1.0000 </r>
       <r>  -15.2387    1.0000 </r>
       <r>  -14.6425    1.0000 </r>
       <r>  -13.7360    1.0000 </r>
       <r>  -12.8134    1.0000 </r>
       <r>  -11.8896    1.0000 </r>
       <r>  -11.6797    1.0000 </r>
       <r>  -11.3955    1.0000 </r>
       <r>  -10.0504    1.0000 </r>
       <r>   -9.9264    1.0000 </r>
       <r>   -9.9142    1.0000 </r>
       <r>   -9.7020    1.0000 </r>
       <r>   -9.6327    1.0000 </r>
       <r>   -9.2855    1.0000 </r>
       <r>   -9.2562    1.0000 </r>
       <r>   -9.0381    1.0000 </r>
       <r>   -8.6061    1.0000 </r>
       <r>   -8.2478    1.0000 </r>
       <r>   -7.5861    1.0000 </r>
       <r>   -7.3547    1.0000 </r>
       <r>   -7.1493    1.0000 </r>
       <r>   -6.5708    1.0000 </r>
       <r>   -6.5388    1.0000 </r>
       <r>   -5.5749    1.0000 </r>
       <r>   -5.3875    1.0000 </r>
       <r>   -5.0694    1.0000 </r>
       <r>   -4.4406    1.0000 </r>
       <r>   -1.2845    0.0000 </r>
       <r>   -0.6820    0.0000 </r>
       <r>   -0.4350    0.0000 </r>
       <r>   -0.3098    0.0000 </r>
       <r>    1.0282    0.0000 </r>
       <r>    1.2335    0.0000 </r>
       <r>    1.8267    0.0000 </r>
       <r>    2.0446    0.0000 </r>
       <r>    2.1562    0.0000 </r>
       <r>    2.4038    0.0000 </r>
      </set>
      <set comment="kpoint 20">
       <r>  -21.5700    1.0000 </r>
       <r>  -21.5544    1.0000 </r>
       <r>  -20.8216    1.0000 </r>
       <r>  -19.7265    1.0000 </r>
       <r>  -18.3173    1.0000 </r>
       <r>  -18.2951    1.0000 </r>
       <r>  -17.3192    1.0000 </r>
       <r>  -17.2955    1.0000 </r>
       <r>  -16.9885    1.0000 </r>
       <r>  -15.9358    1.0000 </r>
       <r>  -15.0218    1.0000 </r>
       <r>  -14.9996    1.0000 </r>
       <r>  -13.2943    1.0000 </r>
       <r>  -13.2701    1.0000 </r>
       <r>  -11.3619    1.0000 </r>
       <r>  -10.9999    1.0000 </r>
       <r>  -10.9758    1.0000 </r>
       <r>  -10.5096    1.0000 </r>
       <r>  -10.4882    1.0000 </r>
       <r>   -9.9018    1.0000 </r>
       <r>   -9.6393    1.0000 </r>
       <r>   -9.5425    1.0000 </r>
       <r>   -9.5298    1.0000 </r>
       <r>   -9.3380    1.0000 </r>
       <r>   -8.6670    1.0000 </r>
       <r>   -8.4146    1.0000 </r>
       <r>   -8.1368    1.0000 </r>
       <r>   -8.1045    1.0000 </r>
       <r>   -7.4086    1.0000 </r>
       <r>   -7.0771    1.0000 </r>
       <r>   -7.0368    1.0000 </r>
       <r>   -5.8661    1.0000 </r>
       <r>   -5.8459    1.0000 </r>
       <r>   -5.0663    1.0000 </r>
       <r>   -5.0226    1.0000 </r>
       <r>   -4.9998    1.0000 </r>
       <r>   -1.0847    0.0000 </r>
       <r>   -0.8394    0.0000 </r>
       <r>   -0.8097    0.0000 </r>
       <r>    0.3986    0.0000 </r>
       <r>    0.4237    0.0000 </r>
       <r>    1.4632    0.0000 </r>
       <r>    1.4649    0.0000 </r>
       <r>    2.2667    0.0000 </r>
       <r>    2.2673    0.0000 </r>
       <r>    2.6029    0.0000 </r>
      </set>
      <set comment="kpoint 21">
       <r>  -21.5687    1.0000 </r>
       <r>  -21.5556    1.0000 </r>
       <r>  -20.8217    1.0000 </r>
       <r>  -19.7266    1.0000 </r>
       <r>  -18.3155    1.0000 </r>
       <r>  -18.2967    1.0000 </r>
       <r>  -17.3173    1.0000 </r>
       <r>  -17.2971    1.0000 </r>
       <r>  -16.9905    1.0000 </r>
       <r>  -15.9302    1.0000 </r>
       <r>  -15.0211    1.0000 </r>
       <r>  -15.0036    1.0000 </r>
       <r>  -13.2920    1.0000 </r>
       <r>  -13.2729    1.0000 </r>
       <r>  -11.3678    1.0000 </r>
       <r>  -10.9971    1.0000 </r>
       <r>  -10.9780    1.0000 </r>
       <r>  -10.5051    1.0000 </r>
       <r>  -10.4890    1.0000 </r>
       <r>   -9.8955    1.0000 </r>
       <r>   -9.6459    1.0000 </r>
       <r>   -9.5416    1.0000 </r>
       <r>   -9.5310    1.0000 </r>
       <r>   -9.3429    1.0000 </r>
       <r>   -8.6666    1.0000 </r>
       <r>   -8.4071    1.0000 </r>
       <r>   -8.1276    1.0000 </r>
       <r>   -8.1002    1.0000 </r>
       <r>   -7.4077    1.0000 </r>
       <r>   -7.0804    1.0000 </r>
       <r>   -7.0485    1.0000 </r>
       <r>   -5.8646    1.0000 </r>
       <r>   -5.8477    1.0000 </r>
       <r>   -5.0726    1.0000 </r>
       <r>   -5.0175    1.0000 </r>
       <r>   -5.0008    1.0000 </r>
       <r>   -1.0772    0.0000 </r>
       <r>   -0.8377    0.0000 </r>
       <r>   -0.8153    0.0000 </r>
       <r>    0.4017    0.0000 </r>
       <r>    0.4214    0.0000 </r>
       <r>    1.4633    0.0000 </r>
       <r>    1.4648    0.0000 </r>
       <r>    2.2667    0.0000 </r>
       <r>    2.2673    0.0000 </r>
       <r>    2.4918    0.0000 </r>
      </set>
      <set comment="kpoint 22">
       <r>  -21.5673    1.0000 </r>
       <r>  -21.5574    1.0000 </r>
       <r>  -20.8213    1.0000 </r>
       <r>  -19.7259    1.0000 </r>
       <r>  -18.3135    1.0000 </r>
       <r>  -18.2993    1.0000 </r>
       <r>  -17.3159    1.0000 </r>
       <r>  -17.3008    1.0000 </r>
       <r>  -16.9813    1.0000 </r>
       <r>  -15.9515    1.0000 </r>
       <r>  -15.0113    1.0000 </r>
       <r>  -15.0004    1.0000 </r>
       <r>  -13.2872    1.0000 </r>
       <r>  -13.2757    1.0000 </r>
       <r>  -11.3459    1.0000 </r>
       <r>  -10.9939    1.0000 </r>
       <r>  -10.9837    1.0000 </r>
       <r>  -10.5086    1.0000 </r>
       <r>  -10.4990    1.0000 </r>
       <r>   -9.9198    1.0000 </r>
       <r>   -9.6198    1.0000 </r>
       <r>   -9.5396    1.0000 </r>
       <r>   -9.5316    1.0000 </r>
       <r>   -9.3257    1.0000 </r>
       <r>   -8.6683    1.0000 </r>
       <r>   -8.4359    1.0000 </r>
       <r>   -8.1473    1.0000 </r>
       <r>   -8.1297    1.0000 </r>
       <r>   -7.4111    1.0000 </r>
       <r>   -7.0491    1.0000 </r>
       <r>   -7.0248    1.0000 </r>
       <r>   -5.8616    1.0000 </r>
       <r>   -5.8496    1.0000 </r>
       <r>   -5.0539    1.0000 </r>
       <r>   -5.0196    1.0000 </r>
       <r>   -5.0092    1.0000 </r>
       <r>   -1.1068    0.0000 </r>
       <r>   -0.8236    0.0000 </r>
       <r>   -0.8125    0.0000 </r>
       <r>    0.4040    0.0000 </r>
       <r>    0.4156    0.0000 </r>
       <r>    1.4636    0.0000 </r>
       <r>    1.4647    0.0000 </r>
       <r>    2.2669    0.0000 </r>
       <r>    2.2673    0.0000 </r>
       <r>    2.4813    0.0000 </r>
      </set>
      <set comment="kpoint 23">
       <r>  -21.6155    1.0000 </r>
       <r>  -21.2486    1.0000 </r>
       <r>  -21.2390    1.0000 </r>
       <r>  -19.0674    1.0000 </r>
       <r>  -19.0538    1.0000 </r>
       <r>  -18.3553    1.0000 </r>
       <r>  -17.0960    1.0000 </r>
       <r>  -17.0855    1.0000 </r>
       <r>  -16.7051    1.0000 </r>
       <r>  -15.6905    1.0000 </r>
       <r>  -15.6143    1.0000 </r>
       <r>  -15.6028    1.0000 </r>
       <r>  -12.9078    1.0000 </r>
       <r>  -12.2768    1.0000 </r>
       <r>  -12.2659    1.0000 </r>
       <r>  -11.3659    1.0000 </r>
       <r>  -10.5536    1.0000 </r>
       <r>  -10.5455    1.0000 </r>
       <r>  -10.5301    1.0000 </r>
       <r>   -9.8298    1.0000 </r>
       <r>   -9.8191    1.0000 </r>
       <r>   -9.5993    1.0000 </r>
       <r>   -9.1648    1.0000 </r>
       <r>   -9.1570    1.0000 </r>
       <r>   -8.8354    1.0000 </r>
       <r>   -8.8148    1.0000 </r>
       <r>   -7.8650    1.0000 </r>
       <r>   -7.6939    1.0000 </r>
       <r>   -7.6709    1.0000 </r>
       <r>   -7.1002    1.0000 </r>
       <r>   -6.6692    1.0000 </r>
       <r>   -6.6570    1.0000 </r>
       <r>   -5.8971    1.0000 </r>
       <r>   -5.0152    1.0000 </r>
       <r>   -5.0059    1.0000 </r>
       <r>   -4.6622    1.0000 </r>
       <r>   -1.2445    0.0000 </r>
       <r>   -1.0215    0.0000 </r>
       <r>   -1.0097    0.0000 </r>
       <r>    0.5372    0.0000 </r>
       <r>    1.3916    0.0000 </r>
       <r>    1.4700    0.0000 </r>
       <r>    1.4841    0.0000 </r>
       <r>    1.8995    0.0000 </r>
       <r>    1.9007    0.0000 </r>
       <r>    2.1938    0.0000 </r>
      </set>
      <set comment="kpoint 24">
       <r>  -21.6156    1.0000 </r>
       <r>  -21.2515    1.0000 </r>
       <r>  -21.2361    1.0000 </r>
       <r>  -19.0709    1.0000 </r>
       <r>  -19.0494    1.0000 </r>
       <r>  -18.3558    1.0000 </r>
       <r>  -17.0975    1.0000 </r>
       <r>  -17.0798    1.0000 </r>
       <r>  -16.7128    1.0000 </r>
       <r>  -15.6740    1.0000 </r>
       <r>  -15.6277    1.0000 </r>
       <r>  -15.6027    1.0000 </r>
       <r>  -12.9211    1.0000 </r>
       <r>  -12.2722    1.0000 </r>
       <r>  -12.2505    1.0000 </r>
       <r>  -11.3511    1.0000 </r>
       <r>  -10.5688    1.0000 </r>
       <r>  -10.5579    1.0000 </r>
       <r>  -10.5368    1.0000 </r>
       <r>   -9.8295    1.0000 </r>
       <r>   -9.8070    1.0000 </r>
       <r>   -9.5987    1.0000 </r>
       <r>   -9.1674    1.0000 </r>
       <r>   -9.1549    1.0000 </r>
       <r>   -8.8425    1.0000 </r>
       <r>   -8.7995    1.0000 </r>
       <r>   -7.8892    1.0000 </r>
       <r>   -7.7085    1.0000 </r>
       <r>   -7.6633    1.0000 </r>
       <r>   -7.0762    1.0000 </r>
       <r>   -6.6752    1.0000 </r>
       <r>   -6.6556    1.0000 </r>
       <r>   -5.8926    1.0000 </r>
       <r>   -5.0143    1.0000 </r>
       <r>   -4.9932    1.0000 </r>
       <r>   -4.6756    1.0000 </r>
       <r>   -1.2236    0.0000 </r>
       <r>   -1.0422    0.0000 </r>
       <r>   -1.0113    0.0000 </r>
       <r>    0.5260    0.0000 </r>
       <r>    1.3916    0.0000 </r>
       <r>    1.4715    0.0000 </r>
       <r>    1.4967    0.0000 </r>
       <r>    1.8992    0.0000 </r>
       <r>    1.9010    0.0000 </r>
       <r>    2.1938    0.0000 </r>
      </set>
      <set comment="kpoint 25">
       <r>  -21.6157    1.0000 </r>
       <r>  -21.2501    1.0000 </r>
       <r>  -21.2373    1.0000 </r>
       <r>  -19.0692    1.0000 </r>
       <r>  -19.0511    1.0000 </r>
       <r>  -18.3559    1.0000 </r>
       <r>  -17.0951    1.0000 </r>
       <r>  -17.0807    1.0000 </r>
       <r>  -16.7157    1.0000 </r>
       <r>  -15.6675    1.0000 </r>
       <r>  -15.6271    1.0000 </r>
       <r>  -15.6084    1.0000 </r>
       <r>  -12.9259    1.0000 </r>
       <r>  -12.2662    1.0000 </r>
       <r>  -12.2491    1.0000 </r>
       <r>  -11.3457    1.0000 </r>
       <r>  -10.5707    1.0000 </r>
       <r>  -10.5613    1.0000 </r>
       <r>  -10.5442    1.0000 </r>
       <r>   -9.8245    1.0000 </r>
       <r>   -9.8072    1.0000 </r>
       <r>   -9.5986    1.0000 </r>
       <r>   -9.1664    1.0000 </r>
       <r>   -9.1560    1.0000 </r>
       <r>   -8.8368    1.0000 </r>
       <r>   -8.8027    1.0000 </r>
       <r>   -7.8967    1.0000 </r>
       <r>   -7.7062    1.0000 </r>
       <r>   -7.6692    1.0000 </r>
       <r>   -7.0673    1.0000 </r>
       <r>   -6.6745    1.0000 </r>
       <r>   -6.6581    1.0000 </r>
       <r>   -5.8909    1.0000 </r>
       <r>   -5.0094    1.0000 </r>
       <r>   -4.9931    1.0000 </r>
       <r>   -4.6805    1.0000 </r>
       <r>   -1.2158    0.0000 </r>
       <r>   -1.0426    0.0000 </r>
       <r>   -1.0193    0.0000 </r>
       <r>    0.5219    0.0000 </r>
       <r>    1.3917    0.0000 </r>
       <r>    1.4764    0.0000 </r>
       <r>    1.4970    0.0000 </r>
       <r>    1.8993    0.0000 </r>
       <r>    1.9008    0.0000 </r>
       <r>    2.1939    0.0000 </r>
      </set>
     </set>
    </set>
   </array>
  </eigenvalues>
  <separator name="orbital magnetization" >
   <v name="MAGDIPOLOUT">      0.00000000      0.00000000      0.00000000</v>
  </separator>
  <dos>
   <i name="efermi">     -2.75531776 </i>
   <total>
    <array>
     <dimension dim="1">gridpoints</dimension>
     <dimension dim="2">spin</dimension>
     <field>energy</field>
     <field>total</field>
     <field>integrated</field>
     <set>
      <set comment="spin 1">
       <r>   -23.5114     0.0000     0.0000 </r>
       <r>   -23.4194     0.0000     0.0000 </r>
       <r>   -23.3273     0.0000     0.0000 </r>
       <r>   -23.2352     0.0000     0.0000 </r>
       <r>   -23.1432     0.0000     0.0000 </r>
       <r>   -23.0511     0.0000     0.0000 </r>
       <r>   -22.9591     0.0000     0.0000 </r>
       <r>   -22.8670     0.0000     0.0000 </r>
       <r>   -22.7749     0.0000     0.0000 </r>
       <r>   -22.6829     0.0000     0.0000 </r>
       <r>   -22.5908     0.0000     0.0000 </r>
       <r>   -22.4988     0.0000     0.0000 </r>
       <r>   -22.4067     0.0000     0.0000 </r>
       <r>   -22.3146     0.0236     0.0022 </r>
       <r>   -22.2226     1.1018     0.1036 </r>
       <r>   -22.1305     2.3660     0.3214 </r>
       <r>   -22.0385     3.5657     0.6497 </r>
       <r>   -21.9464     1.5377     0.7912 </r>
       <r>   -21.8543     4.0198     1.1613 </r>
       <r>   -21.7623     2.8376     1.4225 </r>
       <r>   -21.6702     1.1179     1.5255 </r>
       <r>   -21.5782     3.8584     1.8807 </r>
       <r>   -21.4861     3.8896     2.2387 </r>
       <r>   -21.3940     1.6571     2.3913 </r>
       <r>   -21.3020     1.3443     2.5151 </r>
       <r>   -21.2099     4.2375     2.9052 </r>
       <r>   -21.1178     4.6190     3.3304 </r>
       <r>   -21.0258     1.5127     3.4696 </r>
       <r>   -20.9337     1.1234     3.5731 </r>
       <r>   -20.8417     2.3746     3.7917 </r>
       <r>   -20.7496     5.5242     4.3002 </r>
       <r>   -20.6575     2.1366     4.4969 </r>
       <r>   -20.5655     4.2571     4.8888 </r>
       <r>   -20.4734     0.5426     4.9388 </r>
       <r>   -20.3814     0.5427     4.9888 </r>
       <r>   -20.2893     5.1476     5.4627 </r>
       <r>   -20.1972     4.6780     5.8933 </r>
       <r>   -20.1052     2.8921     6.1596 </r>
       <r>   -20.0131     1.1867     6.2688 </r>
       <r>   -19.9211     3.9557     6.6330 </r>
       <r>   -19.8290     0.2232     6.6535 </r>
       <r>   -19.7369     1.3666     6.7793 </r>
       <r>   -19.6449     7.5467     7.4741 </r>
       <r>   -19.5528     2.6782     7.7206 </r>
       <r>   -19.4608     4.0794     8.0962 </r>
       <r>   -19.3687     0.2946     8.1233 </r>
       <r>   -19.2766     1.8488     8.2935 </r>
       <r>   -19.1846     3.3763     8.6043 </r>
       <r>   -19.0925     1.0906     8.7047 </r>
       <r>   -19.0005     4.6732     9.1350 </r>
       <r>   -18.9084     5.7934     9.6683 </r>
       <r>   -18.8163     2.0699     9.8589 </r>
       <r>   -18.7243     4.0292    10.2298 </r>
       <r>   -18.6322     1.0489    10.3264 </r>
       <r>   -18.5401     0.0496    10.3309 </r>
       <r>   -18.4481     3.0239    10.6093 </r>
       <r>   -18.3560     4.0136    10.9788 </r>
       <r>   -18.2640     5.5538    11.4901 </r>
       <r>   -18.1719     2.5638    11.7261 </r>
       <r>   -18.0798     4.1748    12.1104 </r>
       <r>   -17.9878     1.9795    12.2927 </r>
       <r>   -17.8957     3.7870    12.6413 </r>
       <r>   -17.8037     1.4543    12.7752 </r>
       <r>   -17.7116     0.0067    12.7758 </r>
       <r>   -17.6195     1.7798    12.9396 </r>
       <r>   -17.5275     8.6837    13.7391 </r>
       <r>   -17.4354     4.9342    14.1933 </r>
       <r>   -17.3434     1.4431    14.3262 </r>
       <r>   -17.2513     4.7941    14.7675 </r>
       <r>   -17.1592     2.3744    14.9861 </r>
       <r>   -17.0672     3.8344    15.3391 </r>
       <r>   -16.9751     3.0825    15.6229 </r>
       <r>   -16.8831     0.9928    15.7143 </r>
       <r>   -16.7910     1.5828    15.8600 </r>
       <r>   -16.6989     8.6409    16.6555 </r>
       <r>   -16.6069     5.5450    17.1660 </r>
       <r>   -16.5148     0.1923    17.1837 </r>
       <r>   -16.4228     0.0000    17.1837 </r>
       <r>   -16.3307     0.0000    17.1837 </r>
       <r>   -16.2386     0.0410    17.1875 </r>
       <r>   -16.1466     1.7240    17.3462 </r>
       <r>   -16.0545     1.1882    17.4555 </r>
       <r>   -15.9624     4.7283    17.8908 </r>
       <r>   -15.8704     2.8798    18.1559 </r>
       <r>   -15.7783     0.5757    18.2089 </r>
       <r>   -15.6863     3.2369    18.5069 </r>
       <r>   -15.5942     5.2938    18.9943 </r>
       <r>   -15.5021     1.6077    19.1423 </r>
       <r>   -15.4101     0.0692    19.1487 </r>
       <r>   -15.3180     1.6528    19.3008 </r>
       <r>   -15.2260     9.8872    20.2110 </r>
       <r>   -15.1339     3.4616    20.5297 </r>
       <r>   -15.0418     1.0170    20.6233 </r>
       <r>   -14.9498     4.8869    21.0732 </r>
       <r>   -14.8577     4.4145    21.4796 </r>
       <r>   -14.7657     1.3281    21.6019 </r>
       <r>   -14.6736     2.8243    21.8619 </r>
       <r>   -14.5815     8.4829    22.6429 </r>
       <r>   -14.4895     0.9970    22.7346 </r>
       <r>   -14.3974     0.0986    22.7437 </r>
       <r>   -14.3054     3.7662    23.0904 </r>
       <r>   -14.2133     4.1689    23.4742 </r>
       <r>   -14.1212     4.4054    23.8798 </r>
       <r>   -14.0292     0.9377    23.9661 </r>
       <r>   -13.9371     3.3756    24.2769 </r>
       <r>   -13.8451     1.8638    24.4485 </r>
       <r>   -13.7530     1.2717    24.5655 </r>
       <r>   -13.6609     3.9852    24.9324 </r>
       <r>   -13.5689     2.3144    25.1455 </r>
       <r>   -13.4768     4.3274    25.5439 </r>
       <r>   -13.3847     1.4205    25.6747 </r>
       <r>   -13.2927     2.4541    25.9006 </r>
       <r>   -13.2006     3.6657    26.2380 </r>
       <r>   -13.1086     0.0749    26.2449 </r>
       <r>   -13.0165     0.8388    26.3222 </r>
       <r>   -12.9244     9.3551    27.1834 </r>
       <r>   -12.8324     5.0909    27.6521 </r>
       <r>   -12.7403     3.2720    27.9533 </r>
       <r>   -12.6483     0.3699    27.9873 </r>
       <r>   -12.5562     2.1237    28.1829 </r>
       <r>   -12.4641     0.2616    28.2069 </r>
       <r>   -12.3721     1.5940    28.3537 </r>
       <r>   -12.2800     7.9249    29.0833 </r>
       <r>   -12.1880     8.6914    29.8834 </r>
       <r>   -12.0959     2.9987    30.1595 </r>
       <r>   -12.0038     0.0513    30.1642 </r>
       <r>   -11.9118     1.9198    30.3409 </r>
       <r>   -11.8197     3.3679    30.6510 </r>
       <r>   -11.7277     3.6923    30.9909 </r>
       <r>   -11.6356     6.4447    31.5842 </r>
       <r>   -11.5435     0.5262    31.6326 </r>
       <r>   -11.4515     0.2367    31.6544 </r>
       <r>   -11.3594     6.4784    32.2508 </r>
       <r>   -11.2674     6.0648    32.8092 </r>
       <r>   -11.1753     3.3519    33.1177 </r>
       <r>   -11.0832     5.5643    33.6300 </r>
       <r>   -10.9912     4.7179    34.0643 </r>
       <r>   -10.8991     2.8084    34.3229 </r>
       <r>   -10.8070     0.0398    34.3265 </r>
       <r>   -10.7150     0.0036    34.3269 </r>
       <r>   -10.6229     1.5485    34.4694 </r>
       <r>   -10.5309    10.9872    35.4809 </r>
       <r>   -10.4388    10.5919    36.4560 </r>
       <r>   -10.3467     2.9077    36.7237 </r>
       <r>   -10.2547     5.8917    37.2661 </r>
       <r>   -10.1626     2.0758    37.4572 </r>
       <r>   -10.0706     4.3244    37.8553 </r>
       <r>    -9.9785     4.9407    38.3101 </r>
       <r>    -9.8864    10.8324    39.3074 </r>
       <r>    -9.7944     9.9695    40.2252 </r>
       <r>    -9.7023     6.2501    40.8006 </r>
       <r>    -9.6103     8.7504    41.6061 </r>
       <r>    -9.5182     8.9077    42.4262 </r>
       <r>    -9.4261     5.4429    42.9273 </r>
       <r>    -9.3341     3.8352    43.2803 </r>
       <r>    -9.2420    10.3291    44.2312 </r>
       <r>    -9.1500    12.0579    45.3413 </r>
       <r>    -9.0579    14.7472    46.6989 </r>
       <r>    -8.9658     6.8839    47.3326 </r>
       <r>    -8.8738     3.1638    47.6239 </r>
       <r>    -8.7817    12.2570    48.7523 </r>
       <r>    -8.6897     6.9194    49.3893 </r>
       <r>    -8.5976     7.4563    50.0757 </r>
       <r>    -8.5055     6.9890    50.7192 </r>
       <r>    -8.4135     8.1218    51.4669 </r>
       <r>    -8.3214     3.3493    51.7752 </r>
       <r>    -8.2293     4.0022    52.1436 </r>
       <r>    -8.1373     5.6265    52.6616 </r>
       <r>    -8.0452    13.6520    53.9184 </r>
       <r>    -7.9532     5.3528    54.4112 </r>
       <r>    -7.8611     4.9416    54.8661 </r>
       <r>    -7.7690     1.2263    54.9790 </r>
       <r>    -7.6770     8.3264    55.7456 </r>
       <r>    -7.5849     7.0816    56.3975 </r>
       <r>    -7.4929     5.1129    56.8682 </r>
       <r>    -7.4008     2.9913    57.1436 </r>
       <r>    -7.3087     7.2997    57.8156 </r>
       <r>    -7.2167     2.3336    58.0304 </r>
       <r>    -7.1246     9.9850    58.9497 </r>
       <r>    -7.0326     7.7019    59.6587 </r>
       <r>    -6.9405     3.5847    59.9887 </r>
       <r>    -6.8484     3.5615    60.3166 </r>
       <r>    -6.7564     0.1564    60.3310 </r>
       <r>    -6.6643     4.3399    60.7305 </r>
       <r>    -6.5723    10.5330    61.7002 </r>
       <r>    -6.4802     8.8142    62.5116 </r>
       <r>    -6.3881     4.1290    62.8918 </r>
       <r>    -6.2961     4.0323    63.2630 </r>
       <r>    -6.2040     1.7778    63.4266 </r>
       <r>    -6.1120     4.9380    63.8812 </r>
       <r>    -6.0199     4.8777    64.3303 </r>
       <r>    -5.9278     2.8149    64.5894 </r>
       <r>    -5.8358     7.9354    65.3200 </r>
       <r>    -5.7437     7.1423    65.9775 </r>
       <r>    -5.6516     3.4573    66.2958 </r>
       <r>    -5.5596     3.7902    66.6447 </r>
       <r>    -5.4675     1.4770    66.7807 </r>
       <r>    -5.3755     3.1964    67.0749 </r>
       <r>    -5.2834     2.0810    67.2665 </r>
       <r>    -5.1913     1.5313    67.4075 </r>
       <r>    -5.0993     3.2751    67.7090 </r>
       <r>    -5.0072    15.5516    69.1407 </r>
       <r>    -4.9152     6.1717    69.7088 </r>
       <r>    -4.8231     0.0592    69.7143 </r>
       <r>    -4.7310     0.1425    69.7274 </r>
       <r>    -4.6390     2.0512    69.9162 </r>
       <r>    -4.5469     0.4698    69.9595 </r>
       <r>    -4.4549     1.4316    70.0913 </r>
       <r>    -4.3628     3.9557    70.4554 </r>
       <r>    -4.2707     5.0437    70.9198 </r>
       <r>    -4.1787     2.8293    71.1802 </r>
       <r>    -4.0866     0.0373    71.1837 </r>
       <r>    -3.9946     0.0110    71.1847 </r>
       <r>    -3.9025     1.2259    71.2975 </r>
       <r>    -3.8104     1.4045    71.4268 </r>
       <r>    -3.7184     0.0188    71.4286 </r>
       <r>    -3.6263     0.0155    71.4300 </r>
       <r>    -3.5343     2.2024    71.6328 </r>
       <r>    -3.4422     3.0505    71.9136 </r>
       <r>    -3.3501     0.0519    71.9184 </r>
       <r>    -3.2581     0.0000    71.9184 </r>
       <r>    -3.1660     0.0000    71.9184 </r>
       <r>    -3.0739     0.0000    71.9184 </r>
       <r>    -2.9819     0.0000    71.9184 </r>
       <r>    -2.8898     0.0002    71.9184 </r>
       <r>    -2.7978     0.2246    71.9391 </r>
       <r>    -2.7057     1.3858    72.0667 </r>
       <r>    -2.6136     0.1626    72.0816 </r>
       <r>    -2.5216     0.0001    72.0816 </r>
       <r>    -2.4295     0.0000    72.0816 </r>
       <r>    -2.3375     0.0000    72.0816 </r>
       <r>    -2.2454     0.0000    72.0816 </r>
       <r>    -2.1533     0.0001    72.0816 </r>
       <r>    -2.0613     0.3142    72.1106 </r>
       <r>    -1.9692     4.1297    72.4908 </r>
       <r>    -1.8772     0.8752    72.5713 </r>
       <r>    -1.7851     0.0587    72.5767 </r>
       <r>    -1.6930     1.7549    72.7383 </r>
       <r>    -1.6010     0.8441    72.8160 </r>
       <r>    -1.5089     0.0037    72.8163 </r>
       <r>    -1.4169     0.0037    72.8167 </r>
       <r>    -1.3248     1.9911    73.0000 </r>
       <r>    -1.2327    11.3414    74.0441 </r>
       <r>    -1.1407     2.8367    74.3052 </r>
       <r>    -1.0486     3.5215    74.6294 </r>
       <r>    -0.9566     5.7704    75.1606 </r>
       <r>    -0.8645     1.8414    75.3302 </r>
       <r>    -0.7724     4.2040    75.7172 </r>
       <r>    -0.6804     3.3863    76.0289 </r>
       <r>    -0.5883     4.7763    76.4686 </r>
       <r>    -0.4962     2.9800    76.7430 </r>
       <r>    -0.4042     3.7621    77.0893 </r>
       <r>    -0.3121     3.3333    77.3962 </r>
       <r>    -0.2201     5.1831    77.8734 </r>
       <r>    -0.1280     0.9288    77.9589 </r>
       <r>    -0.0359     0.0039    77.9592 </r>
       <r>     0.0561     0.5563    78.0104 </r>
       <r>     0.1482     4.2049    78.3975 </r>
       <r>     0.2402     1.5524    78.5405 </r>
       <r>     0.3323     4.1223    78.9200 </r>
       <r>     0.4244     3.6359    79.2547 </r>
       <r>     0.5164     3.1114    79.5411 </r>
       <r>     0.6085     3.6460    79.8768 </r>
       <r>     0.7005     1.3350    79.9997 </r>
       <r>     0.7926     5.8420    80.5375 </r>
       <r>     0.8847     5.9030    81.0809 </r>
       <r>     0.9767     1.4966    81.2187 </r>
       <r>     1.0688     4.2763    81.6124 </r>
       <r>     1.1608     1.8289    81.7807 </r>
       <r>     1.2529     5.6642    82.3022 </r>
       <r>     1.3450     2.1044    82.4959 </r>
       <r>     1.4370     6.9796    83.1385 </r>
       <r>     1.5291    13.9595    84.4236 </r>
       <r>     1.6211     4.5309    84.8407 </r>
       <r>     1.7132     4.6723    85.2709 </r>
       <r>     1.8053     3.3518    85.5794 </r>
       <r>     1.8973     8.8270    86.3920 </r>
       <r>     1.9894     8.8847    87.2100 </r>
       <r>     2.0815     9.1875    88.0558 </r>
       <r>     2.1735     6.8377    88.6853 </r>
       <r>     2.2656     7.0122    89.3308 </r>
       <r>     2.3576     7.2512    89.9984 </r>
       <r>     2.4497     5.1031    90.4682 </r>
       <r>     2.5418     4.3486    90.8685 </r>
       <r>     2.6338     2.9154    91.1369 </r>
       <r>     2.7259     2.2363    91.3428 </r>
       <r>     2.8179     4.5244    91.7593 </r>
       <r>     2.9100     2.4850    91.9881 </r>
       <r>     3.0021     0.1297    92.0000 </r>
       <r>     3.0941     0.0000    92.0000 </r>
       <r>     3.1862     0.0000    92.0000 </r>
       <r>     3.2782     0.0000    92.0000 </r>
       <r>     3.3703     0.0000    92.0000 </r>
       <r>     3.4624     0.0000    92.0000 </r>
       <r>     3.5544     0.0000    92.0000 </r>
       <r>     3.6465     0.0000    92.0000 </r>
       <r>     3.7385     0.0000    92.0000 </r>
       <r>     3.8306     0.0000    92.0000 </r>
       <r>     3.9227     0.0000    92.0000 </r>
       <r>     4.0147     0.0000    92.0000 </r>
       <r>     4.1068     0.0000    92.0000 </r>
      </set>
     </set>
    </array>
   </total>
  </dos>
 </calculation>
 <structure name="finalpos" >
  <crystal>
   <varray name="basis" >
    <v>       7.40170591       0.00000000       0.00000000 </v>
    <v>      -3.70085295       6.41006527       0.00000000 </v>
    <v>       0.00000000       0.00000000      20.00000000 </v>
   </varray>
   <i name="volume">    948.90835877 </i>
   <varray name="rec_basis" >
    <v>       0.13510399       0.07800233       0.00000000 </v>
    <v>       0.00000000       0.15600465       0.00000000 </v>
    <v>       0.00000000       0.00000000       0.05000000 </v>
   </varray>
  </crystal>
  <varray name="positions" >
   <v>       0.00078002       0.00156005       0.50000000 </v>
   <v>       0.33198229       0.00000000       0.50000000 </v>
   <v>       0.66666667       0.00000000       0.50000000 </v>
   <v>       0.00000000       0.33333333       0.50000000 </v>
   <v>       0.33333333       0.33333333       0.50000000 </v>
   <v>       0.66666667       0.33333333       0.50000000 </v>
   <v>       0.00000000       0.66666667       0.50000000 </v>
   <v>       0.33333333       0.66666667       0.50000000 </v>
   <v>       0.66666667       0.66666667       0.50000000 </v>
   <v>       0.22222222       0.11111111       0.50000000 </v>
   <v>       0.55555556       0.11111111       0.50000000 </v>
   <v>       0.88888889       0.11111111       0.50000000 </v>
   <v>       0.22222222       0.44444444       0.50000000 </v>
   <v>       0.55555556       0.44444444       0.50000000 </v>
   <v>       0.88888889       0.44444444       0.50000000 </v>
   <v>       0.22222222       0.77777778       0.50000000 </v>
   <v>       0.55555556       0.77777778       0.50000000 </v>
   <v>       0.88888889       0.77777778       0.50000000 </v>
  </varray>
 </structure>
</modeling>
