<?xml version="1.0" encoding="ISO-8859-1"?>
<modeling>
 <generator>
  <i name="program" type="string">vasp </i>
  <i name="version" type="string">6.4.1  </i>
  <i name="subversion" type="string">05Apr23 (build Feb 12 2025 00:37:39) complex                          parallel </i>
  <i name="platform" type="string">LinuxIFC </i>
  <i name="date" type="string">2025 02 14 </i>
  <i name="time" type="string">04:26:25 </i>
 </generator>
 <incar>
  <i type="string" name="SYSTEM">SCF</i>
  <i type="int" name="ISTART">     0</i>
  <i type="int" name="ICHARG">     2</i>
  <i type="int" name="NELM">    60</i>
  <i type="int" name="NELMIN">     6</i>
  <i name="EDIFF">      0.00000100</i>
  <i name="EDIFFG">     -0.00000100</i>
  <i name="ENCUT">    600.00000000</i>
  <i type="string" name="LREAL">Auto</i>
  <i type="int" name="ISMEAR">     0</i>
  <i name="SIGMA">      0.05000000</i>
  <i type="logical" name="LWAVE"> F  </i>
  <i type="logical" name="LCHARG"> F  </i>
 </incar>
 <primitive_cell>
  <structure name="primitive_cell" >
   <crystal>
    <varray name="basis" >
     <v>       7.40170591       0.00000000       0.00000000 </v>
     <v>      -3.70085295       6.41006527       0.00000000 </v>
     <v>       0.00000000       0.00000000      20.00000000 </v>
    </varray>
    <i name="volume">    948.90835877 </i>
    <varray name="rec_basis" >
     <v>       0.13510399       0.07800233       0.00000000 </v>
     <v>       0.00000000       0.15600465       0.00000000 </v>
     <v>       0.00000000       0.00000000       0.05000000 </v>
    </varray>
   </crystal>
   <varray name="positions" >
    <v>       0.00078002       0.00156005       0.49950000 </v>
    <v>       0.33333333       0.00000000       0.50000000 </v>
    <v>       0.66666667       0.00000000       0.50000000 </v>
    <v>       1.00000000       0.33333333       0.50000000 </v>
    <v>       0.33333333       0.33333333       0.50000000 </v>
    <v>       0.66666667       0.33333333       0.50000000 </v>
    <v>       1.00000000       0.66666667       0.50000000 </v>
    <v>       0.33333333       0.66666667       0.50000000 </v>
    <v>       0.66666667       0.66666667       0.50000000 </v>
    <v>       0.22222222       0.11111111       0.50000000 </v>
    <v>       0.55555556       0.11111111       0.50000000 </v>
    <v>       0.88888889       0.11111111       0.50000000 </v>
    <v>       0.22222222       0.44444444       0.50000000 </v>
    <v>       0.55555556       0.44444444       0.50000000 </v>
    <v>       0.88888889       0.44444444       0.50000000 </v>
    <v>       0.22222222       0.77777778       0.50000000 </v>
    <v>       0.55555556       0.77777778       0.50000000 </v>
    <v>       0.88888889       0.77777778       0.50000000 </v>
   </varray>
  </structure>
  <varray name="primitive_index" >
   <v type="int" >        1 </v>
   <v type="int" >        2 </v>
   <v type="int" >        3 </v>
   <v type="int" >        4 </v>
   <v type="int" >        5 </v>
   <v type="int" >        6 </v>
   <v type="int" >        7 </v>
   <v type="int" >        8 </v>
   <v type="int" >        9 </v>
   <v type="int" >       10 </v>
   <v type="int" >       11 </v>
   <v type="int" >       12 </v>
   <v type="int" >       13 </v>
   <v type="int" >       14 </v>
   <v type="int" >       15 </v>
   <v type="int" >       16 </v>
   <v type="int" >       17 </v>
   <v type="int" >       18 </v>
  </varray>
 </primitive_cell>
 <kpoints>
  <generation param="Gamma">
   <v type="int" name="divisions">       7        7        1 </v>
   <v name="usershift">      0.00000000       0.00000000       0.00000000 </v>
   <v name="genvec1">      0.14285714       0.00000000       0.00000000 </v>
   <v name="genvec2">      0.00000000       0.14285714       0.00000000 </v>
   <v name="genvec3">      0.00000000       0.00000000       1.00000000 </v>
   <v name="shift">      0.00000000       0.00000000       0.00000000 </v>
  </generation>
  <varray name="kpointlist" >
   <v>       0.00000000       0.00000000       0.00000000 </v>
   <v>       0.14285714       0.00000000       0.00000000 </v>
   <v>       0.00000000       0.14285714       0.00000000 </v>
   <v>       0.28571429       0.00000000       0.00000000 </v>
   <v>       0.00000000       0.28571429       0.00000000 </v>
   <v>       0.42857143       0.00000000       0.00000000 </v>
   <v>       0.00000000       0.42857143       0.00000000 </v>
   <v>       0.14285714       0.14285714       0.00000000 </v>
   <v>      -0.28571429       0.14285714       0.00000000 </v>
   <v>       0.28571429       0.14285714       0.00000000 </v>
   <v>      -0.14285714       0.42857143       0.00000000 </v>
   <v>      -0.42857143       0.28571429       0.00000000 </v>
   <v>       0.42857143       0.14285714       0.00000000 </v>
   <v>      -0.14285714      -0.42857143       0.00000000 </v>
   <v>       0.28571429       0.28571429       0.00000000 </v>
   <v>       0.42857143       0.28571429       0.00000000 </v>
  </varray>
  <varray name="weights" >
   <v>       0.02040816 </v>
   <v>       0.08163265 </v>
   <v>       0.04081633 </v>
   <v>       0.08163265 </v>
   <v>       0.04081633 </v>
   <v>       0.08163265 </v>
   <v>       0.04081633 </v>
   <v>       0.08163265 </v>
   <v>       0.04081633 </v>
   <v>       0.08163265 </v>
   <v>       0.08163265 </v>
   <v>       0.08163265 </v>
   <v>       0.08163265 </v>
   <v>       0.04081633 </v>
   <v>       0.08163265 </v>
   <v>       0.04081633 </v>
  </varray>
 </kpoints>
 <parameters>
  <separator name="general" >
   <i type="string" name="SYSTEM">SCF</i>
   <i type="logical" name="LCOMPAT"> F  </i>
  </separator>
  <separator name="electronic" >
   <i type="string" name="PREC">normal</i>
   <i name="ENMAX">    600.00000000</i>
   <i name="ENAUG">    644.87300000</i>
   <i name="EDIFF">      0.00000100</i>
   <i type="int" name="IALGO">    38</i>
   <i type="int" name="IWAVPR">    10</i>
   <i type="int" name="NBANDS">    46</i>
   <i type="int" name="NBANDSLOW">    -1</i>
   <i type="int" name="NBANDSHIGH">    -1</i>
   <i name="NELECT">     72.00000000</i>
   <i type="int" name="TURBO">     0</i>
   <i type="int" name="IRESTART">     0</i>
   <i type="int" name="NREBOOT">     0</i>
   <i type="int" name="NMIN">     0</i>
   <i name="EREF">      0.00000000</i>
   <separator name="electronic smearing" >
    <i type="int" name="ISMEAR">     0</i>
    <i name="SIGMA">      0.05000000</i>
    <i name="KSPACING">      0.50000000</i>
    <i type="logical" name="KGAMMA"> T  </i>
    <i type="logical" name="KBLOWUP"> T  </i>
   </separator>
   <separator name="electronic projectors" >
    <i type="logical" name="LREAL"> T  </i>
    <v name="ROPT">     -0.00050000</v>
    <i type="int" name="LMAXPAW">  -100</i>
    <i type="int" name="LMAXMIX">     2</i>
    <i type="logical" name="NLSPLINE"> F  </i>
   </separator>
   <separator name="electronic startup" >
    <i type="int" name="ISTART">     0</i>
    <i type="int" name="ICHARG">     2</i>
    <i type="int" name="INIWAV">     1</i>
   </separator>
   <separator name="electronic spin" >
    <i type="int" name="ISPIN">     1</i>
    <i type="logical" name="LNONCOLLINEAR"> F  </i>
    <v name="MAGMOM">      1.00000000      1.00000000      1.00000000      1.00000000      1.00000000      1.00000000      1.00000000      1.00000000      1.00000000      1.00000000      1.00000000      1.00000000      1.00000000      1.00000000      1.00000000      1.00000000      1.00000000      1.00000000</v>
    <i name="NUPDOWN">     -1.00000000</i>
    <i type="logical" name="LSORBIT"> F  </i>
    <v name="SAXIS">      0.00000000      0.00000000      1.00000000</v>
    <i type="logical" name="LSPIRAL"> F  </i>
    <v name="QSPIRAL">      0.00000000      0.00000000      0.00000000</v>
    <i type="logical" name="LZEROZ"> F  </i>
   </separator>
   <separator name="electronic exchange-correlation" >
    <i type="logical" name="LASPH"> F  </i>
    <i type="logical" name="LMETAGGA"> F  </i>
   </separator>
   <separator name="electronic convergence" >
    <i type="int" name="NELM">    60</i>
    <i type="int" name="NELMDL">    -5</i>
    <i type="int" name="NELMIN">     6</i>
    <i name="ENINI">    600.00000000</i>
    <separator name="electronic convergence detail" >
     <i type="logical" name="LDIAG"> T  </i>
     <i type="logical" name="LSUBROT"> F  </i>
     <i name="WEIMIN">      0.00000000</i>
     <i name="EBREAK">      0.00000000</i>
     <i name="DEPER">      0.30000000</i>
     <i type="int" name="NRMM">     4</i>
     <i name="TIME">      0.40000000</i>
    </separator>
   </separator>
   <separator name="electronic mixer" >
    <i name="AMIX">      0.40000000</i>
    <i name="BMIX">      1.00000000</i>
    <i name="AMIN">      0.10000000</i>
    <i name="AMIX_MAG">      1.60000000</i>
    <i name="BMIX_MAG">      1.00000000</i>
    <separator name="electronic mixer details" >
     <i type="int" name="IMIX">     4</i>
     <i type="logical" name="MIXFIRST"> F  </i>
     <i type="int" name="MAXMIX">   -45</i>
     <i name="WC">    100.00000000</i>
     <i type="int" name="INIMIX">     1</i>
     <i type="int" name="MIXPRE">     1</i>
     <i type="int" name="MREMOVE">     5</i>
    </separator>
   </separator>
   <separator name="electronic dipolcorrection" >
    <i type="logical" name="LDIPOL"> F  </i>
    <i type="logical" name="LMONO"> F  </i>
    <i type="int" name="IDIPOL">     0</i>
    <i name="EPSILON">      1.00000000</i>
    <v name="DIPOL">   -100.00000000   -100.00000000   -100.00000000</v>
    <i name="EFIELD">      0.00000000</i>
   </separator>
  </separator>
  <separator name="grids" >
   <i type="int" name="NGX">    48</i>
   <i type="int" name="NGY">    48</i>
   <i type="int" name="NGZ">   120</i>
   <i type="int" name="NGXF">    96</i>
   <i type="int" name="NGYF">    96</i>
   <i type="int" name="NGZF">   240</i>
   <i type="logical" name="ADDGRID"> F  </i>
  </separator>
  <separator name="ionic" >
   <i type="int" name="NSW">     0</i>
   <i type="int" name="IBRION">    -1</i>
   <i type="int" name="MDALGO">     0</i>
   <i type="int" name="ISIF">     2</i>
   <i name="PSTRESS">      0.00000000</i>
   <i name="EDIFFG">     -0.00000100</i>
   <i type="int" name="NFREE">     0</i>
   <i name="POTIM">      0.50000000</i>
   <i name="SMASS">     -3.00000000</i>
   <i name="SCALEE">      1.00000000</i>
  </separator>
  <separator name="ionic md" >
   <i name="TEBEG">      0.00010000</i>
   <i name="TEEND">      0.00010000</i>
   <i type="int" name="NBLOCK">     1</i>
   <i type="int" name="KBLOCK">     1</i>
   <i type="int" name="NPACO">   256</i>
   <i name="APACO">     10.00000000</i>
  </separator>
  <separator name="symmetry" >
   <i type="int" name="ISYM">     2</i>
   <i name="SYMPREC">      0.00001000</i>
  </separator>
  <separator name="dos" >
   <i type="int" name="LORBIT">     0</i>
   <v name="RWIGS">     -1.00000000</v>
   <i type="int" name="NEDOS">   301</i>
   <i name="EMIN">     10.00000000</i>
   <i name="EMAX">    -10.00000000</i>
   <i name="EFERMI">      0.00000000</i>
  </separator>
  <separator name="writing" >
   <i type="int" name="NWRITE">     2</i>
   <i type="logical" name="LWAVE"> F  </i>
   <i type="logical" name="LDOWNSAMPLE"> F  </i>
   <i type="logical" name="LCHARG"> F  </i>
   <i type="logical" name="LPARD"> F  </i>
   <i type="logical" name="LVTOT"> F  </i>
   <i type="logical" name="LVHAR"> F  </i>
   <i type="logical" name="LELF"> F  </i>
   <i type="logical" name="LOPTICS"> F  </i>
   <v name="STM">      0.00000000      0.00000000      0.00000000      0.00000000      0.00000000      0.00000000      0.00000000</v>
  </separator>
  <separator name="performance" >
   <i type="int" name="NPAR">     2</i>
   <i type="int" name="NSIM">     4</i>
   <i type="int" name="NBLK">    -1</i>
   <i type="logical" name="LPLANE"> T  </i>
   <i type="logical" name="LSCALAPACK"> T  </i>
   <i type="logical" name="LSCAAWARE"> F  </i>
   <i type="logical" name="LSCALU"> F  </i>
   <i type="logical" name="LASYNC"> F  </i>
   <i type="logical" name="LORBITALREAL"> F  </i>
  </separator>
  <separator name="miscellaneous" >
   <i type="int" name="IDIOT">     3</i>
   <i type="int" name="PHON_NSTRUCT">    -1</i>
   <i type="logical" name="LMUSIC"> F  </i>
   <v name="POMASS">     12.01100000</v>
   <v name="DARWINR">      0.00000000</v>
   <v name="DARWINV">      1.00000000</v>
   <i type="logical" name="LCORR"> T  </i>
  </separator>
  <i type="logical" name="GGA_COMPAT"> T  </i>
  <i type="logical" name="LBERRY"> F  </i>
  <i type="int" name="ICORELEVEL">     0</i>
  <i type="logical" name="LDAU"> F  </i>
  <i type="int" name="I_CONSTRAINED_M">     0</i>
  <separator name="electronic exchange-correlation" >
   <i type="string" name="GGA">--</i>
   <i type="int" name="VOSKOWN">     0</i>
   <i type="logical" name="LHFCALC"> F  </i>
   <i type="string" name="PRECFOCK"></i>
   <i type="logical" name="LSYMGRAD"> F  </i>
   <i type="logical" name="LHFONE"> F  </i>
   <i type="logical" name="LRHFCALC"> F  </i>
   <i type="logical" name="LTHOMAS"> F  </i>
   <i type="logical" name="LMODELHF"> F  </i>
   <i type="logical" name="LFOCKACE"> F  </i>
   <i name="ENCUT4O">     -1.00000000</i>
   <i type="int" name="EXXOEP">     0</i>
   <i type="int" name="FOURORBIT">     0</i>
   <i name="AEXX">      0.00000000</i>
   <i name="HFALPHA">      0.00000000</i>
   <i name="MCALPHA">      0.00000000</i>
   <i name="ALDAX">      1.00000000</i>
   <i name="AGGAX">      1.00000000</i>
   <i name="ALDAC">      1.00000000</i>
   <i name="AGGAC">      1.00000000</i>
   <i type="int" name="NKREDX">     1</i>
   <i type="int" name="NKREDY">     1</i>
   <i type="int" name="NKREDZ">     1</i>
   <i type="logical" name="SHIFTRED"> F  </i>
   <i type="logical" name="ODDONLY"> F  </i>
   <i type="logical" name="EVENONLY"> F  </i>
   <i type="int" name="LMAXFOCK">     0</i>
   <i type="int" name="NMAXFOCKAE">     0</i>
   <i type="logical" name="LFOCKAEDFT"> F  </i>
   <i name="HFSCREEN">      0.00000000</i>
   <i name="HFSCREENC">      0.00000000</i>
   <i type="int" name="NBANDSGWLOW">     0</i>
  </separator>
  <separator name="vdW DFT" >
   <i type="logical" name="LUSE_VDW"> F  </i>
   <i type="int" name="IVDW_NL">     1</i>
   <i type="logical" name="LSPIN_VDW"> F  </i>
   <i name="Zab_VDW">     -0.84910000</i>
   <i name="PARAM1">      0.12340000</i>
   <i name="PARAM2">      1.00000000</i>
   <i name="PARAM3">      0.00000000</i>
  </separator>
  <separator name="model GW" >
   <i type="int" name="MODEL_GW">     0</i>
   <i name="MODEL_EPS0">     31.63027863</i>
   <i name="MODEL_ALPHA">      1.00000000</i>
  </separator>
  <separator name="linear response parameters" >
   <i type="logical" name="LEPSILON"> F  </i>
   <i type="logical" name="LRPA"> F  </i>
   <i type="logical" name="LNABLA"> F  </i>
   <i type="logical" name="LVEL"> F  </i>
   <i name="CSHIFT">      0.10000000</i>
   <i name="OMEGAMAX">     -1.00000000</i>
   <i name="DEG_THRESHOLD">      0.00200000</i>
   <i name="RTIME">     -0.10000000</i>
   <i name="WPLASMAI">      0.00000000</i>
   <v name="DFIELD">      0.00000000      0.00000000      0.00000000</v>
   <v name="WPLASMA">      0.00000000      0.00000000      0.00000000      0.00000000      0.00000000      0.00000000      0.00000000      0.00000000      0.00000000</v>
  </separator>
  <separator name="orbital magnetization" >
   <i type="logical" name="NUCIND"> F  </i>
   <v name="MAGPOS">      0.00000000      0.00000000      0.00000000</v>
   <i type="logical" name="LNICSALL"> T  </i>
   <i type="logical" name="ORBITALMAG"> F  </i>
   <i type="logical" name="LMAGBLOCH"> F  </i>
   <i type="logical" name="LCHIMAG"> F  </i>
   <i type="logical" name="LGAUGE"> T  </i>
   <i type="int" name="MAGATOM">     0</i>
   <v name="MAGDIPOL">      0.00000000      0.00000000      0.00000000</v>
   <v name="AVECCONST">      0.00000000      0.00000000      0.00000000</v>
  </separator>
  <separator name="response functions" >
   <i type="logical" name="LALL_IN_ONE"> F  </i>
   <i type="int" name="IALL_IN_ONE">    -1</i>
   <i type="int" name="NBANDS_WAVE">    -1</i>
   <i type="logical" name="LFINITE_TEMPERATURE"> F  </i>
   <i type="logical" name="LADDER"> F  </i>
   <i type="logical" name="LRPAFORCE"> F  </i>
   <i type="logical" name="LFXC"> F  </i>
   <i type="logical" name="LHARTREE"> T  </i>
   <i type="int" name="IBSE">     0</i>
   <v type="int" name="KPOINT">    -1     0     0     0</v>
   <i type="logical" name="LTCTC"> F  </i>
   <i type="logical" name="LTCTE"> F  </i>
   <i type="logical" name="LTETE"> F  </i>
   <i type="logical" name="LTRIPLET"> F  </i>
   <i type="logical" name="LFXCEPS"> F  </i>
   <i type="logical" name="LFXHEG"> F  </i>
   <i type="int" name="NATURALO">     2</i>
   <i type="logical" name="LHOLEGF"> F  </i>
   <i type="logical" name="L2ORDER"> F  </i>
   <i type="logical" name="LDMP1"> F  </i>
   <i type="logical" name="LMP2LT"> F  </i>
   <i type="logical" name="LSMP2LT"> F  </i>
   <i type="logical" name="LGWLF"> F  </i>
   <i name="ENCUTGW">     -1.60000002</i>
   <i name="ENCUTGWSOFT">     -1.60000002</i>
   <i name="ENCUTLF">     -1.00000000</i>
   <i type="logical" name="LESF_SPLINES"> F  </i>
   <i type="int" name="LMAXMP2">    -1</i>
   <i name="SCISSOR">      0.00000000</i>
   <i type="int" name="NOMEGA">     0</i>
   <i type="int" name="NOMEGAR">     0</i>
   <i type="int" name="NBANDSGW">    -1</i>
   <i type="int" name="NBANDSO">    -1</i>
   <i type="int" name="NBANDSV">    -1</i>
   <i type="int" name="NELMGW">     1</i>
   <i type="int" name="NELMHF">     1</i>
   <i type="int" name="DIM">     3</i>
   <i type="int" name="IESPILON">     4</i>
   <i type="int" name="ANTIRES">     0</i>
   <i name="OMEGAMAX">    -30.00000000</i>
   <i name="OMEGAMIN">    -30.00000000</i>
   <i name="OMEGATL">   -200.00000000</i>
   <i type="int" name="OMEGAGRID">     0</i>
   <i name="CSHIFT">     -0.10000000</i>
   <i type="logical" name="LSELFENERGY"> F  </i>
   <i type="logical" name="LSPECTRAL"> F  </i>
   <i type="logical" name="LSPECTRALGW"> F  </i>
   <i type="logical" name="LSINGLES"> F  </i>
   <i type="logical" name="LFERMIGW"> F  </i>
   <i type="logical" name="ODDONLYGW"> F  </i>
   <i type="logical" name="EVENONLYGW"> F  </i>
   <i type="int" name="NKREDLFX">     1</i>
   <i type="int" name="NKREDLFY">     1</i>
   <i type="int" name="NKREDLFZ">     1</i>
   <i type="int" name="MAXMEM">  2800</i>
   <i type="int" name="TELESCOPE">     0</i>
   <i type="int" name="NTAUPAR">    -1</i>
   <i type="int" name="NOMEGAPAR">    -1</i>
   <i name="DAMP_NEWTON">      0.80000001</i>
   <i name="LAMBDA">      1.00000000</i>
  </separator>
  <separator name="External order field" >
   <i name="OFIELD_KAPPA">      0.00000000</i>
   <v name="OFIELD_K">      0.00000000      0.00000000      0.00000000</v>
   <i name="OFIELD_Q6_NEAR">      0.00000000</i>
   <i name="OFIELD_Q6_FAR">      0.00000000</i>
   <i name="OFIELD_A">      0.00000000</i>
  </separator>
  <separator name="optional k-points parameters" >
   <i type="int" name="KPOINTS_OPT_MODE">     1</i>
   <i type="logical" name="LKPOINTS_OPT"> F  </i>
  </separator>
 </parameters>
 <atominfo>
  <atoms>      18 </atoms>
  <types>       1 </types>
  <array name="atoms" >
   <dimension dim="1">ion</dimension>
   <field type="string">element</field>
   <field type="int">atomtype</field>
   <set>
    <rc><c>C </c><c>   1</c></rc>
    <rc><c>C </c><c>   1</c></rc>
    <rc><c>C </c><c>   1</c></rc>
    <rc><c>C </c><c>   1</c></rc>
    <rc><c>C </c><c>   1</c></rc>
    <rc><c>C </c><c>   1</c></rc>
    <rc><c>C </c><c>   1</c></rc>
    <rc><c>C </c><c>   1</c></rc>
    <rc><c>C </c><c>   1</c></rc>
    <rc><c>C </c><c>   1</c></rc>
    <rc><c>C </c><c>   1</c></rc>
    <rc><c>C </c><c>   1</c></rc>
    <rc><c>C </c><c>   1</c></rc>
    <rc><c>C </c><c>   1</c></rc>
    <rc><c>C </c><c>   1</c></rc>
    <rc><c>C </c><c>   1</c></rc>
    <rc><c>C </c><c>   1</c></rc>
    <rc><c>C </c><c>   1</c></rc>
   </set>
  </array>
  <array name="atomtypes" >
   <dimension dim="1">type</dimension>
   <field type="int">atomspertype</field>
   <field type="string">element</field>
   <field>mass</field>
   <field>valence</field>
   <field type="string">pseudopotential</field>
   <set>
    <rc><c>  18</c><c>C </c><c>     12.01100000</c><c>      4.00000000</c><c>  PAW_PBE C 08Apr2002                   </c></rc>
   </set>
  </array>
 </atominfo>
 <structure name="initialpos" >
  <crystal>
   <varray name="basis" >
    <v>       7.40170591       0.00000000       0.00000000 </v>
    <v>      -3.70085295       6.41006527       0.00000000 </v>
    <v>       0.00000000       0.00000000      20.00000000 </v>
   </varray>
   <i name="volume">    948.90835877 </i>
   <varray name="rec_basis" >
    <v>       0.13510399       0.07800233       0.00000000 </v>
    <v>       0.00000000       0.15600465       0.00000000 </v>
    <v>       0.00000000       0.00000000       0.05000000 </v>
   </varray>
  </crystal>
  <varray name="positions" >
   <v>       0.00078002       0.00156005       0.49950000 </v>
   <v>       0.33333333       0.00000000       0.50000000 </v>
   <v>       0.66666667       0.00000000       0.50000000 </v>
   <v>       0.00000000       0.33333333       0.50000000 </v>
   <v>       0.33333333       0.33333333       0.50000000 </v>
   <v>       0.66666667       0.33333333       0.50000000 </v>
   <v>       0.00000000       0.66666667       0.50000000 </v>
   <v>       0.33333333       0.66666667       0.50000000 </v>
   <v>       0.66666667       0.66666667       0.50000000 </v>
   <v>       0.22222222       0.11111111       0.50000000 </v>
   <v>       0.55555556       0.11111111       0.50000000 </v>
   <v>       0.88888889       0.11111111       0.50000000 </v>
   <v>       0.22222222       0.44444444       0.50000000 </v>
   <v>       0.55555556       0.44444444       0.50000000 </v>
   <v>       0.88888889       0.44444444       0.50000000 </v>
   <v>       0.22222222       0.77777778       0.50000000 </v>
   <v>       0.55555556       0.77777778       0.50000000 </v>
   <v>       0.88888889       0.77777778       0.50000000 </v>
  </varray>
 </structure>
 <calculation>
  <scstep>
   <time name="dav">    3.78    3.92</time>
   <time name="total">    3.87    4.01</time>
   <energy>
    <i name="alphaZ">     28.04858418 </i>
    <i name="ewald">  11638.84049474 </i>
    <i name="hartreedc"> -13553.15829285 </i>
    <i name="XCdc">    237.17731737 </i>
    <i name="pawpsdc">   1953.39683484 </i>
    <i name="pawaedc">  -1963.64613940 </i>
    <i name="eentropy">     -0.01224579 </i>
    <i name="bandstr">   -254.86770407 </i>
    <i name="atom">   2648.70517965 </i>
    <i name="e_fr_energy">    734.48402867 </i>
    <i name="e_wo_entrp">    734.49627447 </i>
    <i name="e_0_energy">    734.49015157 </i>
   </energy>
  </scstep>
  <scstep>
   <time name="dav">    5.08    5.27</time>
   <time name="total">    5.08    5.27</time>
   <energy>
    <i name="e_fr_energy">    -25.05486180 </i>
    <i name="e_wo_entrp">    -25.05455061 </i>
    <i name="e_0_energy">    -25.05470621 </i>
   </energy>
  </scstep>
  <scstep>
   <time name="dav">    4.11    4.27</time>
   <time name="total">    4.11    4.27</time>
   <energy>
    <i name="e_fr_energy">   -172.46254593 </i>
    <i name="e_wo_entrp">   -172.46140873 </i>
    <i name="e_0_energy">   -172.46197733 </i>
   </energy>
  </scstep>
  <scstep>
   <time name="dav">    4.09    4.24</time>
   <time name="total">    4.09    4.24</time>
   <energy>
    <i name="e_fr_energy">   -177.35428506 </i>
    <i name="e_wo_entrp">   -177.35215476 </i>
    <i name="e_0_energy">   -177.35321991 </i>
   </energy>
  </scstep>
  <scstep>
   <time name="dav">    4.53    4.70</time>
   <time name="total">    4.72    4.89</time>
   <energy>
    <i name="e_fr_energy">   -177.48539258 </i>
    <i name="e_wo_entrp">   -177.48323490 </i>
    <i name="e_0_energy">   -177.48431374 </i>
   </energy>
  </scstep>
  <scstep>
   <time name="dav">    3.83    2.82</time>
   <time name="total">    4.09    3.09</time>
   <energy>
    <i name="e_fr_energy">   -169.31874509 </i>
    <i name="e_wo_entrp">   -169.31655159 </i>
    <i name="e_0_energy">   -169.31764834 </i>
   </energy>
  </scstep>
  <scstep>
   <time name="dav">    3.81    3.95</time>
   <time name="total">    4.07    4.22</time>
   <energy>
    <i name="e_fr_energy">   -166.15052669 </i>
    <i name="e_wo_entrp">   -166.14831745 </i>
    <i name="e_0_energy">   -166.14942207 </i>
   </energy>
  </scstep>
  <scstep>
   <time name="dav">    4.03    4.18</time>
   <time name="total">    4.29    4.45</time>
   <energy>
    <i name="e_fr_energy">   -166.08758515 </i>
    <i name="e_wo_entrp">   -166.08538286 </i>
    <i name="e_0_energy">   -166.08648401 </i>
   </energy>
  </scstep>
  <scstep>
   <time name="dav">    4.12    4.27</time>
   <time name="total">    4.38    4.54</time>
   <energy>
    <i name="e_fr_energy">   -166.07484539 </i>
    <i name="e_wo_entrp">   -166.07264094 </i>
    <i name="e_0_energy">   -166.07374317 </i>
   </energy>
  </scstep>
  <scstep>
   <time name="dav">    3.73    3.87</time>
   <time name="total">    3.99    4.13</time>
   <energy>
    <i name="e_fr_energy">   -166.05627643 </i>
    <i name="e_wo_entrp">   -166.05407016 </i>
    <i name="e_0_energy">   -166.05517330 </i>
   </energy>
  </scstep>
  <scstep>
   <time name="dav">    3.72    3.86</time>
   <time name="total">    3.98    4.13</time>
   <energy>
    <i name="e_fr_energy">   -166.06000664 </i>
    <i name="e_wo_entrp">   -166.05780176 </i>
    <i name="e_0_energy">   -166.05890420 </i>
   </energy>
  </scstep>
  <scstep>
   <time name="dav">    3.54    3.67</time>
   <time name="total">    3.82    3.96</time>
   <energy>
    <i name="e_fr_energy">   -166.06468924 </i>
    <i name="e_wo_entrp">   -166.06248457 </i>
    <i name="e_0_energy">   -166.06358691 </i>
   </energy>
  </scstep>
  <scstep>
   <time name="dav">    3.82    3.96</time>
   <time name="total">    4.09    4.23</time>
   <energy>
    <i name="e_fr_energy">   -166.06892228 </i>
    <i name="e_wo_entrp">   -166.06671710 </i>
    <i name="e_0_energy">   -166.06781969 </i>
   </energy>
  </scstep>
  <scstep>
   <time name="dav">    3.62    2.63</time>
   <time name="total">    3.88    2.90</time>
   <energy>
    <i name="e_fr_energy">   -166.07257171 </i>
    <i name="e_wo_entrp">   -166.07036647 </i>
    <i name="e_0_energy">   -166.07146909 </i>
   </energy>
  </scstep>
  <scstep>
   <time name="dav">    3.76    3.90</time>
   <time name="total">    4.04    4.19</time>
   <energy>
    <i name="e_fr_energy">   -166.07377362 </i>
    <i name="e_wo_entrp">   -166.07156837 </i>
    <i name="e_0_energy">   -166.07267100 </i>
   </energy>
  </scstep>
  <scstep>
   <time name="dav">    3.79    3.93</time>
   <time name="total">    4.05    4.20</time>
   <energy>
    <i name="e_fr_energy">   -166.07395626 </i>
    <i name="e_wo_entrp">   -166.07175107 </i>
    <i name="e_0_energy">   -166.07285366 </i>
   </energy>
  </scstep>
  <scstep>
   <time name="dav">    3.39    3.51</time>
   <time name="total">    3.64    3.78</time>
   <energy>
    <i name="e_fr_energy">   -166.07415087 </i>
    <i name="e_wo_entrp">   -166.07194575 </i>
    <i name="e_0_energy">   -166.07304831 </i>
   </energy>
  </scstep>
  <scstep>
   <time name="dav">    3.30    3.42</time>
   <time name="total">    3.57    3.70</time>
   <energy>
    <i name="e_fr_energy">   -166.07419244 </i>
    <i name="e_wo_entrp">   -166.07198727 </i>
    <i name="e_0_energy">   -166.07308985 </i>
   </energy>
  </scstep>
  <scstep>
   <time name="dav">    3.30    3.42</time>
   <time name="total">    3.56    3.69</time>
   <energy>
    <i name="e_fr_energy">   -166.07422970 </i>
    <i name="e_wo_entrp">   -166.07202450 </i>
    <i name="e_0_energy">   -166.07312710 </i>
   </energy>
  </scstep>
  <scstep>
   <time name="dav">    2.77    2.88</time>
   <time name="total">    3.03    3.14</time>
   <energy>
    <i name="e_fr_energy">   -166.07425041 </i>
    <i name="e_wo_entrp">   -166.07204524 </i>
    <i name="e_0_energy">   -166.07314782 </i>
   </energy>
  </scstep>
  <scstep>
   <time name="dav">    2.55    2.64</time>
   <time name="total">    2.81    2.91</time>
   <energy>
    <i name="e_fr_energy">   -166.07425876 </i>
    <i name="e_wo_entrp">   -166.07205358 </i>
    <i name="e_0_energy">   -166.07315617 </i>
   </energy>
  </scstep>
  <scstep>
   <time name="dav">    2.53    2.62</time>
   <time name="total">    2.78    2.89</time>
   <energy>
    <i name="e_fr_energy">   -166.07426121 </i>
    <i name="e_wo_entrp">   -166.07205604 </i>
    <i name="e_0_energy">   -166.07315862 </i>
   </energy>
  </scstep>
  <scstep>
   <time name="dav">    2.65    1.59</time>
   <time name="total">    2.74    1.68</time>
   <energy>
    <i name="alphaZ">     28.04858418 </i>
    <i name="ewald">  11638.84049474 </i>
    <i name="hartreedc"> -13861.49354837 </i>
    <i name="XCdc">    247.81378021 </i>
    <i name="pawpsdc">   7452.75835953 </i>
    <i name="pawaedc">  -7465.02169258 </i>
    <i name="eentropy">     -0.00220517 </i>
    <i name="bandstr">   -855.72321361 </i>
    <i name="atom">   2648.70517965 </i>
    <i name="e_fr_energy">   -166.07426142 </i>
    <i name="e_wo_entrp">   -166.07205625 </i>
    <i name="e_0_energy">   -166.07315884 </i>
   </energy>
  </scstep>
  <structure>
   <crystal>
    <varray name="basis" >
     <v>       7.40170591       0.00000000       0.00000000 </v>
     <v>      -3.70085295       6.41006527       0.00000000 </v>
     <v>       0.00000000       0.00000000      20.00000000 </v>
    </varray>
    <i name="volume">    948.90835877 </i>
    <varray name="rec_basis" >
     <v>       0.13510399       0.07800233       0.00000000 </v>
     <v>       0.00000000       0.15600465       0.00000000 </v>
     <v>       0.00000000       0.00000000       0.05000000 </v>
    </varray>
   </crystal>
   <varray name="positions" >
    <v>       0.00078002       0.00156005       0.49950000 </v>
    <v>       0.33333333       0.00000000       0.50000000 </v>
    <v>       0.66666667       0.00000000       0.50000000 </v>
    <v>       0.00000000       0.33333333       0.50000000 </v>
    <v>       0.33333333       0.33333333       0.50000000 </v>
    <v>       0.66666667       0.33333333       0.50000000 </v>
    <v>       0.00000000       0.66666667       0.50000000 </v>
    <v>       0.33333333       0.66666667       0.50000000 </v>
    <v>       0.66666667       0.66666667       0.50000000 </v>
    <v>       0.22222222       0.11111111       0.50000000 </v>
    <v>       0.55555556       0.11111111       0.50000000 </v>
    <v>       0.88888889       0.11111111       0.50000000 </v>
    <v>       0.22222222       0.44444444       0.50000000 </v>
    <v>       0.55555556       0.44444444       0.50000000 </v>
    <v>       0.88888889       0.44444444       0.50000000 </v>
    <v>       0.22222222       0.77777778       0.50000000 </v>
    <v>       0.55555556       0.77777778       0.50000000 </v>
    <v>       0.88888889       0.77777778       0.50000000 </v>
   </varray>
  </structure>
  <varray name="forces" >
   <v>      -0.00000000      -0.58929493       0.14267682 </v>
   <v>       0.01334961      -0.02422052       0.00476404 </v>
   <v>      -0.01334961      -0.02422052       0.00476404 </v>
   <v>      -0.01895424       0.03175068       0.00512181 </v>
   <v>       0.01895424       0.03175068       0.00512181 </v>
   <v>       0.00000000       0.03031217      -0.00211370 </v>
   <v>      -0.04539864       0.03120972       0.00468210 </v>
   <v>       0.00000000       0.03029632      -0.00211334 </v>
   <v>       0.04539864       0.03120972       0.00468210 </v>
   <v>       0.05606719       0.13953185      -0.06096828 </v>
   <v>      -0.00000000      -0.02489896       0.00905062 </v>
   <v>      -0.05606719       0.13953185      -0.06096828 </v>
   <v>      -0.00000000      -0.03135969      -0.00331877 </v>
   <v>       0.01040703      -0.00694938       0.00915871 </v>
   <v>      -0.01040703      -0.00694938       0.00915871 </v>
   <v>       0.02292281       0.00822737      -0.00336143 </v>
   <v>      -0.02292281       0.00822737      -0.00336143 </v>
   <v>       0.00000000       0.22584565      -0.06297554 </v>
  </varray>
  <varray name="stress" >
   <v>      -0.09452891      -0.00000000       0.00000000 </v>
   <v>      -0.00000000      -0.22096954       0.00896943 </v>
   <v>       0.00000000       0.00896943      -0.57339069 </v>
  </varray>
  <energy>
   <i name="e_fr_energy">   -166.07426142 </i>
   <i name="e_wo_entrp">   -166.07205625 </i>
   <i name="e_0_energy">   -166.07315884 </i>
  </energy>
  <time name="totalsc">   92.12   92.07</time>
  <eigenvalues>
   <array>
    <dimension dim="1">band</dimension>
    <dimension dim="2">kpoint</dimension>
    <dimension dim="3">spin</dimension>
    <field>eigene</field>
    <field>occ</field>
    <set>
     <set comment="spin 1">
      <set comment="kpoint 1">
       <r>  -22.2559    1.0000 </r>
       <r>  -19.6922    1.0000 </r>
       <r>  -19.6777    1.0000 </r>
       <r>  -19.6749    1.0000 </r>
       <r>  -19.6724    1.0000 </r>
       <r>  -19.6719    1.0000 </r>
       <r>  -19.6511    1.0000 </r>
       <r>  -15.3502    1.0000 </r>
       <r>  -15.3482    1.0000 </r>
       <r>  -15.3407    1.0000 </r>
       <r>  -15.3239    1.0000 </r>
       <r>  -13.2921    1.0000 </r>
       <r>  -13.2872    1.0000 </r>
       <r>  -12.3945    1.0000 </r>
       <r>  -12.3856    1.0000 </r>
       <r>  -12.3755    1.0000 </r>
       <r>  -12.3737    1.0000 </r>
       <r>  -12.3685    1.0000 </r>
       <r>  -12.3498    1.0000 </r>
       <r>  -10.3599    1.0000 </r>
       <r>   -8.5508    1.0000 </r>
       <r>   -8.5269    1.0000 </r>
       <r>   -8.5240    1.0000 </r>
       <r>   -8.5235    1.0000 </r>
       <r>   -8.5195    1.0000 </r>
       <r>   -8.4964    1.0000 </r>
       <r>   -7.3873    1.0000 </r>
       <r>   -7.3732    1.0000 </r>
       <r>   -7.3722    1.0000 </r>
       <r>   -7.3704    1.0000 </r>
       <r>   -7.3700    1.0000 </r>
       <r>   -7.3521    1.0000 </r>
       <r>   -5.8008    1.0000 </r>
       <r>   -5.7678    1.0000 </r>
       <r>   -2.7688    0.6480 </r>
       <r>   -2.7578    0.5275 </r>
       <r>   -2.7553    0.4993 </r>
       <r>   -2.7393    0.3252 </r>
       <r>    0.5196    0.0000 </r>
       <r>    1.3122    0.0000 </r>
       <r>    1.6360    0.0000 </r>
       <r>    2.1219    0.0000 </r>
       <r>    2.1402    0.0000 </r>
       <r>    2.1435    0.0000 </r>
       <r>    2.1448    0.0000 </r>
       <r>    2.1479    0.0000 </r>
      </set>
      <set comment="kpoint 2">
       <r>  -22.2023    1.0000 </r>
       <r>  -20.3492    1.0000 </r>
       <r>  -19.9909    1.0000 </r>
       <r>  -19.9774    1.0000 </r>
       <r>  -19.2693    1.0000 </r>
       <r>  -19.2555    1.0000 </r>
       <r>  -18.9061    1.0000 </r>
       <r>  -16.0023    1.0000 </r>
       <r>  -15.9888    1.0000 </r>
       <r>  -14.9193    1.0000 </r>
       <r>  -14.9063    1.0000 </r>
       <r>  -13.6005    1.0000 </r>
       <r>  -12.9755    1.0000 </r>
       <r>  -12.9656    1.0000 </r>
       <r>  -12.9610    1.0000 </r>
       <r>  -12.9487    1.0000 </r>
       <r>  -11.7397    1.0000 </r>
       <r>  -11.7267    1.0000 </r>
       <r>  -11.1209    1.0000 </r>
       <r>  -10.2959    1.0000 </r>
       <r>   -8.8741    1.0000 </r>
       <r>   -8.8591    1.0000 </r>
       <r>   -8.8232    1.0000 </r>
       <r>   -8.5190    1.0000 </r>
       <r>   -8.5048    1.0000 </r>
       <r>   -8.1268    1.0000 </r>
       <r>   -8.1263    1.0000 </r>
       <r>   -7.7198    1.0000 </r>
       <r>   -7.7080    1.0000 </r>
       <r>   -6.9290    1.0000 </r>
       <r>   -6.9174    1.0000 </r>
       <r>   -6.5554    1.0000 </r>
       <r>   -6.0140    1.0000 </r>
       <r>   -5.8904    1.0000 </r>
       <r>   -3.5329    1.0000 </r>
       <r>   -3.5207    1.0000 </r>
       <r>   -2.0114    0.0000 </r>
       <r>   -1.9975    0.0000 </r>
       <r>    0.5922    0.0000 </r>
       <r>    0.8710    0.0000 </r>
       <r>    1.3858    0.0000 </r>
       <r>    1.4663    0.0000 </r>
       <r>    1.4837    0.0000 </r>
       <r>    1.7105    0.0000 </r>
       <r>    2.6297    0.0000 </r>
       <r>    2.7542    0.0000 </r>
      </set>
      <set comment="kpoint 3">
       <r>  -22.2023    1.0000 </r>
       <r>  -20.3488    1.0000 </r>
       <r>  -19.9856    1.0000 </r>
       <r>  -19.9834    1.0000 </r>
       <r>  -19.2640    1.0000 </r>
       <r>  -19.2609    1.0000 </r>
       <r>  -18.9058    1.0000 </r>
       <r>  -15.9989    1.0000 </r>
       <r>  -15.9909    1.0000 </r>
       <r>  -14.9183    1.0000 </r>
       <r>  -14.9099    1.0000 </r>
       <r>  -13.5922    1.0000 </r>
       <r>  -12.9784    1.0000 </r>
       <r>  -12.9742    1.0000 </r>
       <r>  -12.9526    1.0000 </r>
       <r>  -12.9518    1.0000 </r>
       <r>  -11.7431    1.0000 </r>
       <r>  -11.7347    1.0000 </r>
       <r>  -11.1105    1.0000 </r>
       <r>  -10.2959    1.0000 </r>
       <r>   -8.8675    1.0000 </r>
       <r>   -8.8535    1.0000 </r>
       <r>   -8.8365    1.0000 </r>
       <r>   -8.5121    1.0000 </r>
       <r>   -8.4961    1.0000 </r>
       <r>   -8.1408    1.0000 </r>
       <r>   -8.1282    1.0000 </r>
       <r>   -7.7141    1.0000 </r>
       <r>   -7.7108    1.0000 </r>
       <r>   -6.9236    1.0000 </r>
       <r>   -6.9200    1.0000 </r>
       <r>   -6.5601    1.0000 </r>
       <r>   -5.9887    1.0000 </r>
       <r>   -5.9159    1.0000 </r>
       <r>   -3.5278    1.0000 </r>
       <r>   -3.5250    1.0000 </r>
       <r>   -2.0059    0.0000 </r>
       <r>   -2.0040    0.0000 </r>
       <r>    0.5921    0.0000 </r>
       <r>    0.8826    0.0000 </r>
       <r>    1.3858    0.0000 </r>
       <r>    1.4700    0.0000 </r>
       <r>    1.4724    0.0000 </r>
       <r>    1.7105    0.0000 </r>
       <r>    2.6297    0.0000 </r>
       <r>    2.7567    0.0000 </r>
      </set>
      <set comment="kpoint 4">
       <r>  -22.0418    1.0000 </r>
       <r>  -20.9267    1.0000 </r>
       <r>  -20.1993    1.0000 </r>
       <r>  -20.1858    1.0000 </r>
       <r>  -18.7622    1.0000 </r>
       <r>  -18.7484    1.0000 </r>
       <r>  -18.0628    1.0000 </r>
       <r>  -16.7523    1.0000 </r>
       <r>  -16.7384    1.0000 </r>
       <r>  -14.7562    1.0000 </r>
       <r>  -14.6297    1.0000 </r>
       <r>  -14.6173    1.0000 </r>
       <r>  -13.5039    1.0000 </r>
       <r>  -13.4925    1.0000 </r>
       <r>  -12.1914    1.0000 </r>
       <r>  -12.1775    1.0000 </r>
       <r>  -11.1018    1.0000 </r>
       <r>  -11.0886    1.0000 </r>
       <r>  -10.1046    1.0000 </r>
       <r>   -9.8643    1.0000 </r>
       <r>   -9.5043    1.0000 </r>
       <r>   -9.4891    1.0000 </r>
       <r>   -9.0343    1.0000 </r>
       <r>   -8.7924    1.0000 </r>
       <r>   -8.7700    1.0000 </r>
       <r>   -8.7576    1.0000 </r>
       <r>   -7.9512    1.0000 </r>
       <r>   -7.9393    1.0000 </r>
       <r>   -7.6659    1.0000 </r>
       <r>   -6.6297    1.0000 </r>
       <r>   -6.3838    1.0000 </r>
       <r>   -6.3723    1.0000 </r>
       <r>   -6.2087    1.0000 </r>
       <r>   -5.7623    1.0000 </r>
       <r>   -4.3051    1.0000 </r>
       <r>   -4.2933    1.0000 </r>
       <r>   -1.2899    0.0000 </r>
       <r>   -1.2750    0.0000 </r>
       <r>   -0.2429    0.0000 </r>
       <r>    0.7794    0.0000 </r>
       <r>    0.7958    0.0000 </r>
       <r>    0.8126    0.0000 </r>
       <r>    1.6065    0.0000 </r>
       <r>    1.9340    0.0000 </r>
       <r>    2.3341    0.0000 </r>
       <r>    2.8511    0.0000 </r>
      </set>
      <set comment="kpoint 5">
       <r>  -22.0418    1.0000 </r>
       <r>  -20.9264    1.0000 </r>
       <r>  -20.1940    1.0000 </r>
       <r>  -20.1919    1.0000 </r>
       <r>  -18.7570    1.0000 </r>
       <r>  -18.7536    1.0000 </r>
       <r>  -18.0631    1.0000 </r>
       <r>  -16.7480    1.0000 </r>
       <r>  -16.7415    1.0000 </r>
       <r>  -14.7483    1.0000 </r>
       <r>  -14.6294    1.0000 </r>
       <r>  -14.6217    1.0000 </r>
       <r>  -13.5049    1.0000 </r>
       <r>  -13.4983    1.0000 </r>
       <r>  -12.1834    1.0000 </r>
       <r>  -12.1816    1.0000 </r>
       <r>  -11.1084    1.0000 </r>
       <r>  -11.0988    1.0000 </r>
       <r>  -10.1048    1.0000 </r>
       <r>   -9.8520    1.0000 </r>
       <r>   -9.4976    1.0000 </r>
       <r>   -9.4864    1.0000 </r>
       <r>   -9.0459    1.0000 </r>
       <r>   -8.7930    1.0000 </r>
       <r>   -8.7616    1.0000 </r>
       <r>   -8.7461    1.0000 </r>
       <r>   -7.9455    1.0000 </r>
       <r>   -7.9420    1.0000 </r>
       <r>   -7.6815    1.0000 </r>
       <r>   -6.6082    1.0000 </r>
       <r>   -6.3786    1.0000 </r>
       <r>   -6.3749    1.0000 </r>
       <r>   -6.2311    1.0000 </r>
       <r>   -5.7699    1.0000 </r>
       <r>   -4.3001    1.0000 </r>
       <r>   -4.2967    1.0000 </r>
       <r>   -1.2840    0.0000 </r>
       <r>   -1.2831    0.0000 </r>
       <r>   -0.2281    0.0000 </r>
       <r>    0.7832    0.0000 </r>
       <r>    0.7865    0.0000 </r>
       <r>    0.8121    0.0000 </r>
       <r>    1.6065    0.0000 </r>
       <r>    1.9340    0.0000 </r>
       <r>    2.3341    0.0000 </r>
       <r>    2.8510    0.0000 </r>
      </set>
      <set comment="kpoint 6">
       <r>  -21.7750    1.0000 </r>
       <r>  -21.4028    1.0000 </r>
       <r>  -20.3039    1.0000 </r>
       <r>  -20.2904    1.0000 </r>
       <r>  -18.1652    1.0000 </r>
       <r>  -18.1514    1.0000 </r>
       <r>  -17.4884    1.0000 </r>
       <r>  -17.4746    1.0000 </r>
       <r>  -17.2275    1.0000 </r>
       <r>  -15.7493    1.0000 </r>
       <r>  -14.3269    1.0000 </r>
       <r>  -14.3157    1.0000 </r>
       <r>  -13.9556    1.0000 </r>
       <r>  -13.9442    1.0000 </r>
       <r>  -11.2671    1.0000 </r>
       <r>  -11.2522    1.0000 </r>
       <r>  -10.5989    1.0000 </r>
       <r>  -10.5871    1.0000 </r>
       <r>  -10.3365    1.0000 </r>
       <r>  -10.3211    1.0000 </r>
       <r>   -9.7876    1.0000 </r>
       <r>   -9.3481    1.0000 </r>
       <r>   -9.1418    1.0000 </r>
       <r>   -9.0987    1.0000 </r>
       <r>   -9.0904    1.0000 </r>
       <r>   -8.6509    1.0000 </r>
       <r>   -8.0676    1.0000 </r>
       <r>   -8.0557    1.0000 </r>
       <r>   -7.5445    1.0000 </r>
       <r>   -7.1626    1.0000 </r>
       <r>   -6.6574    1.0000 </r>
       <r>   -5.7532    1.0000 </r>
       <r>   -5.7417    1.0000 </r>
       <r>   -5.1946    1.0000 </r>
       <r>   -5.0533    1.0000 </r>
       <r>   -5.0415    1.0000 </r>
       <r>   -0.9763    0.0000 </r>
       <r>   -0.5921    0.0000 </r>
       <r>   -0.5764    0.0000 </r>
       <r>    0.0944    0.0000 </r>
       <r>    0.1110    0.0000 </r>
       <r>    1.1736    0.0000 </r>
       <r>    1.6817    0.0000 </r>
       <r>    1.9739    0.0000 </r>
       <r>    2.3064    0.0000 </r>
       <r>    2.4870    0.0000 </r>
      </set>
      <set comment="kpoint 7">
       <r>  -21.7750    1.0000 </r>
       <r>  -21.4025    1.0000 </r>
       <r>  -20.2985    1.0000 </r>
       <r>  -20.2965    1.0000 </r>
       <r>  -18.1601    1.0000 </r>
       <r>  -18.1563    1.0000 </r>
       <r>  -17.4836    1.0000 </r>
       <r>  -17.4785    1.0000 </r>
       <r>  -17.2308    1.0000 </r>
       <r>  -15.7384    1.0000 </r>
       <r>  -14.3273    1.0000 </r>
       <r>  -14.3209    1.0000 </r>
       <r>  -13.9560    1.0000 </r>
       <r>  -13.9497    1.0000 </r>
       <r>  -11.2594    1.0000 </r>
       <r>  -11.2543    1.0000 </r>
       <r>  -10.6116    1.0000 </r>
       <r>  -10.6009    1.0000 </r>
       <r>  -10.3293    1.0000 </r>
       <r>  -10.3213    1.0000 </r>
       <r>   -9.7880    1.0000 </r>
       <r>   -9.3487    1.0000 </r>
       <r>   -9.1517    1.0000 </r>
       <r>   -9.0867    1.0000 </r>
       <r>   -9.0737    1.0000 </r>
       <r>   -8.6357    1.0000 </r>
       <r>   -8.0618    1.0000 </r>
       <r>   -8.0584    1.0000 </r>
       <r>   -7.5260    1.0000 </r>
       <r>   -7.1806    1.0000 </r>
       <r>   -6.6769    1.0000 </r>
       <r>   -5.7479    1.0000 </r>
       <r>   -5.7448    1.0000 </r>
       <r>   -5.2056    1.0000 </r>
       <r>   -5.0483    1.0000 </r>
       <r>   -5.0442    1.0000 </r>
       <r>   -0.9583    0.0000 </r>
       <r>   -0.5860    0.0000 </r>
       <r>   -0.5857    0.0000 </r>
       <r>    0.1002    0.0000 </r>
       <r>    0.1006    0.0000 </r>
       <r>    1.1735    0.0000 </r>
       <r>    1.6817    0.0000 </r>
       <r>    1.9739    0.0000 </r>
       <r>    2.3064    0.0000 </r>
       <r>    2.4868    0.0000 </r>
      </set>
      <set comment="kpoint 8">
       <r>  -22.0953    1.0000 </r>
       <r>  -20.6142    1.0000 </r>
       <r>  -20.6077    1.0000 </r>
       <r>  -19.5239    1.0000 </r>
       <r>  -19.5151    1.0000 </r>
       <r>  -18.4583    1.0000 </r>
       <r>  -18.4514    1.0000 </r>
       <r>  -16.7789    1.0000 </r>
       <r>  -16.1594    1.0000 </r>
       <r>  -15.2454    1.0000 </r>
       <r>  -14.2528    1.0000 </r>
       <r>  -14.1634    1.0000 </r>
       <r>  -14.1499    1.0000 </r>
       <r>  -12.6080    1.0000 </r>
       <r>  -12.3140    1.0000 </r>
       <r>  -12.3082    1.0000 </r>
       <r>  -12.2663    1.0000 </r>
       <r>  -10.4939    1.0000 </r>
       <r>  -10.4763    1.0000 </r>
       <r>  -10.1683    1.0000 </r>
       <r>   -9.1784    1.0000 </r>
       <r>   -9.1694    1.0000 </r>
       <r>   -9.1311    1.0000 </r>
       <r>   -9.1173    1.0000 </r>
       <r>   -8.4289    1.0000 </r>
       <r>   -8.4235    1.0000 </r>
       <r>   -8.0858    1.0000 </r>
       <r>   -8.0666    1.0000 </r>
       <r>   -7.1940    1.0000 </r>
       <r>   -7.1858    1.0000 </r>
       <r>   -6.4012    1.0000 </r>
       <r>   -6.1391    1.0000 </r>
       <r>   -6.1089    1.0000 </r>
       <r>   -6.1017    1.0000 </r>
       <r>   -4.2601    1.0000 </r>
       <r>   -3.8956    1.0000 </r>
       <r>   -1.7156    0.0000 </r>
       <r>   -1.2617    0.0000 </r>
       <r>    0.2686    0.0000 </r>
       <r>    0.2823    0.0000 </r>
       <r>    0.7377    0.0000 </r>
       <r>    1.5330    0.0000 </r>
       <r>    1.8594    0.0000 </r>
       <r>    2.0031    0.0000 </r>
       <r>    2.0145    0.0000 </r>
       <r>    2.7773    0.0000 </r>
      </set>
      <set comment="kpoint 9">
       <r>  -22.0953    1.0000 </r>
       <r>  -20.6176    1.0000 </r>
       <r>  -20.6045    1.0000 </r>
       <r>  -19.5280    1.0000 </r>
       <r>  -19.5103    1.0000 </r>
       <r>  -18.4618    1.0000 </r>
       <r>  -18.4481    1.0000 </r>
       <r>  -16.7783    1.0000 </r>
       <r>  -16.1664    1.0000 </r>
       <r>  -15.2305    1.0000 </r>
       <r>  -14.2614    1.0000 </r>
       <r>  -14.1713    1.0000 </r>
       <r>  -14.1514    1.0000 </r>
       <r>  -12.5986    1.0000 </r>
       <r>  -12.3075    1.0000 </r>
       <r>  -12.2951    1.0000 </r>
       <r>  -12.2761    1.0000 </r>
       <r>  -10.5014    1.0000 </r>
       <r>  -10.4769    1.0000 </r>
       <r>  -10.1682    1.0000 </r>
       <r>   -9.1971    1.0000 </r>
       <r>   -9.1733    1.0000 </r>
       <r>   -9.1261    1.0000 </r>
       <r>   -9.1118    1.0000 </r>
       <r>   -8.4309    1.0000 </r>
       <r>   -8.4207    1.0000 </r>
       <r>   -8.0822    1.0000 </r>
       <r>   -8.0598    1.0000 </r>
       <r>   -7.2007    1.0000 </r>
       <r>   -7.1846    1.0000 </r>
       <r>   -6.4237    1.0000 </r>
       <r>   -6.1164    1.0000 </r>
       <r>   -6.1067    1.0000 </r>
       <r>   -6.0968    1.0000 </r>
       <r>   -4.2533    1.0000 </r>
       <r>   -3.9069    1.0000 </r>
       <r>   -1.7002    0.0000 </r>
       <r>   -1.2722    0.0000 </r>
       <r>    0.2614    0.0000 </r>
       <r>    0.2745    0.0000 </r>
       <r>    0.7377    0.0000 </r>
       <r>    1.5330    0.0000 </r>
       <r>    1.8595    0.0000 </r>
       <r>    2.0068    0.0000 </r>
       <r>    2.0279    0.0000 </r>
       <r>    2.7773    0.0000 </r>
      </set>
      <set comment="kpoint 10">
       <r>  -21.8816    1.0000 </r>
       <r>  -21.1380    1.0000 </r>
       <r>  -20.7686    1.0000 </r>
       <r>  -19.6743    1.0000 </r>
       <r>  -18.9584    1.0000 </r>
       <r>  -17.9170    1.0000 </r>
       <r>  -17.5945    1.0000 </r>
       <r>  -17.5715    1.0000 </r>
       <r>  -16.6698    1.0000 </r>
       <r>  -15.2580    1.0000 </r>
       <r>  -15.2531    1.0000 </r>
       <r>  -14.6294    1.0000 </r>
       <r>  -13.7220    1.0000 </r>
       <r>  -12.8256    1.0000 </r>
       <r>  -11.9046    1.0000 </r>
       <r>  -11.6829    1.0000 </r>
       <r>  -11.3850    1.0000 </r>
       <r>  -10.0344    1.0000 </r>
       <r>   -9.9156    1.0000 </r>
       <r>   -9.9068    1.0000 </r>
       <r>   -9.7183    1.0000 </r>
       <r>   -9.6296    1.0000 </r>
       <r>   -9.2825    1.0000 </r>
       <r>   -9.2670    1.0000 </r>
       <r>   -9.0370    1.0000 </r>
       <r>   -8.6074    1.0000 </r>
       <r>   -8.2683    1.0000 </r>
       <r>   -7.5713    1.0000 </r>
       <r>   -7.3543    1.0000 </r>
       <r>   -7.1414    1.0000 </r>
       <r>   -6.5666    1.0000 </r>
       <r>   -6.5465    1.0000 </r>
       <r>   -5.5864    1.0000 </r>
       <r>   -5.3827    1.0000 </r>
       <r>   -5.0765    1.0000 </r>
       <r>   -4.4285    1.0000 </r>
       <r>   -1.3032    0.0000 </r>
       <r>   -0.6904    0.0000 </r>
       <r>   -0.4208    0.0000 </r>
       <r>   -0.2880    0.0000 </r>
       <r>    1.0282    0.0000 </r>
       <r>    1.2187    0.0000 </r>
       <r>    1.8271    0.0000 </r>
       <r>    2.0447    0.0000 </r>
       <r>    2.1574    0.0000 </r>
       <r>    2.4036    0.0000 </r>
      </set>
      <set comment="kpoint 11">
       <r>  -21.8816    1.0000 </r>
       <r>  -21.1377    1.0000 </r>
       <r>  -20.7689    1.0000 </r>
       <r>  -19.6747    1.0000 </r>
       <r>  -18.9580    1.0000 </r>
       <r>  -17.9166    1.0000 </r>
       <r>  -17.5962    1.0000 </r>
       <r>  -17.5709    1.0000 </r>
       <r>  -16.6698    1.0000 </r>
       <r>  -15.2566    1.0000 </r>
       <r>  -15.2448    1.0000 </r>
       <r>  -14.6374    1.0000 </r>
       <r>  -13.7263    1.0000 </r>
       <r>  -12.8225    1.0000 </r>
       <r>  -11.8998    1.0000 </r>
       <r>  -11.6891    1.0000 </r>
       <r>  -11.3860    1.0000 </r>
       <r>  -10.0381    1.0000 </r>
       <r>   -9.9253    1.0000 </r>
       <r>   -9.9135    1.0000 </r>
       <r>   -9.7079    1.0000 </r>
       <r>   -9.6224    1.0000 </r>
       <r>   -9.2899    1.0000 </r>
       <r>   -9.2549    1.0000 </r>
       <r>   -9.0380    1.0000 </r>
       <r>   -8.6060    1.0000 </r>
       <r>   -8.2498    1.0000 </r>
       <r>   -7.5896    1.0000 </r>
       <r>   -7.3527    1.0000 </r>
       <r>   -7.1314    1.0000 </r>
       <r>   -6.5692    1.0000 </r>
       <r>   -6.5564    1.0000 </r>
       <r>   -5.5798    1.0000 </r>
       <r>   -5.3918    1.0000 </r>
       <r>   -5.0749    1.0000 </r>
       <r>   -4.4301    1.0000 </r>
       <r>   -1.3008    0.0000 </r>
       <r>   -0.6746    0.0000 </r>
       <r>   -0.4231    0.0000 </r>
       <r>   -0.3014    0.0000 </r>
       <r>    1.0282    0.0000 </r>
       <r>    1.2242    0.0000 </r>
       <r>    1.8270    0.0000 </r>
       <r>    2.0446    0.0000 </r>
       <r>    2.1574    0.0000 </r>
       <r>    2.3973    0.0000 </r>
      </set>
      <set comment="kpoint 12">
       <r>  -21.8817    1.0000 </r>
       <r>  -21.1380    1.0000 </r>
       <r>  -20.7687    1.0000 </r>
       <r>  -19.6743    1.0000 </r>
       <r>  -18.9578    1.0000 </r>
       <r>  -17.9167    1.0000 </r>
       <r>  -17.5936    1.0000 </r>
       <r>  -17.5724    1.0000 </r>
       <r>  -16.6737    1.0000 </r>
       <r>  -15.2593    1.0000 </r>
       <r>  -15.2398    1.0000 </r>
       <r>  -14.6377    1.0000 </r>
       <r>  -13.7334    1.0000 </r>
       <r>  -12.8152    1.0000 </r>
       <r>  -11.8921    1.0000 </r>
       <r>  -11.6758    1.0000 </r>
       <r>  -11.3951    1.0000 </r>
       <r>  -10.0475    1.0000 </r>
       <r>   -9.9193    1.0000 </r>
       <r>   -9.9121    1.0000 </r>
       <r>   -9.7069    1.0000 </r>
       <r>   -9.6375    1.0000 </r>
       <r>   -9.2820    1.0000 </r>
       <r>   -9.2632    1.0000 </r>
       <r>   -9.0374    1.0000 </r>
       <r>   -8.6068    1.0000 </r>
       <r>   -8.2583    1.0000 </r>
       <r>   -7.5757    1.0000 </r>
       <r>   -7.3554    1.0000 </r>
       <r>   -7.1549    1.0000 </r>
       <r>   -6.5701    1.0000 </r>
       <r>   -6.5329    1.0000 </r>
       <r>   -5.5786    1.0000 </r>
       <r>   -5.3821    1.0000 </r>
       <r>   -5.0706    1.0000 </r>
       <r>   -4.4398    1.0000 </r>
       <r>   -1.2860    0.0000 </r>
       <r>   -0.6913    0.0000 </r>
       <r>   -0.4317    0.0000 </r>
       <r>   -0.3040    0.0000 </r>
       <r>    1.0282    0.0000 </r>
       <r>    1.2301    0.0000 </r>
       <r>    1.8271    0.0000 </r>
       <r>    2.0446    0.0000 </r>
       <r>    2.1574    0.0000 </r>
       <r>    2.4072    0.0000 </r>
      </set>
      <set comment="kpoint 13">
       <r>  -21.5653    1.0000 </r>
       <r>  -21.5589    1.0000 </r>
       <r>  -20.8213    1.0000 </r>
       <r>  -19.7261    1.0000 </r>
       <r>  -18.3108    1.0000 </r>
       <r>  -18.3015    1.0000 </r>
       <r>  -17.3127    1.0000 </r>
       <r>  -17.3030    1.0000 </r>
       <r>  -16.9849    1.0000 </r>
       <r>  -15.9436    1.0000 </r>
       <r>  -15.0141    1.0000 </r>
       <r>  -15.0023    1.0000 </r>
       <r>  -13.2883    1.0000 </r>
       <r>  -13.2751    1.0000 </r>
       <r>  -11.3538    1.0000 </r>
       <r>  -10.9952    1.0000 </r>
       <r>  -10.9810    1.0000 </r>
       <r>  -10.5074    1.0000 </r>
       <r>  -10.4954    1.0000 </r>
       <r>   -9.9106    1.0000 </r>
       <r>   -9.6295    1.0000 </r>
       <r>   -9.5383    1.0000 </r>
       <r>   -9.5330    1.0000 </r>
       <r>   -9.3322    1.0000 </r>
       <r>   -8.6676    1.0000 </r>
       <r>   -8.4247    1.0000 </r>
       <r>   -8.1372    1.0000 </r>
       <r>   -8.1229    1.0000 </r>
       <r>   -7.4099    1.0000 </r>
       <r>   -7.0565    1.0000 </r>
       <r>   -7.0377    1.0000 </r>
       <r>   -5.8603    1.0000 </r>
       <r>   -5.8510    1.0000 </r>
       <r>   -5.0596    1.0000 </r>
       <r>   -5.0194    1.0000 </r>
       <r>   -5.0068    1.0000 </r>
       <r>   -1.0957    0.0000 </r>
       <r>   -0.8301    0.0000 </r>
       <r>   -0.8127    0.0000 </r>
       <r>    0.4033    0.0000 </r>
       <r>    0.4171    0.0000 </r>
       <r>    1.4638    0.0000 </r>
       <r>    1.4646    0.0000 </r>
       <r>    2.2673    0.0000 </r>
       <r>    2.2676    0.0000 </r>
       <r>    2.4850    0.0000 </r>
      </set>
      <set comment="kpoint 14">
       <r>  -21.5684    1.0000 </r>
       <r>  -21.5555    1.0000 </r>
       <r>  -20.8216    1.0000 </r>
       <r>  -19.7265    1.0000 </r>
       <r>  -18.3153    1.0000 </r>
       <r>  -18.2966    1.0000 </r>
       <r>  -17.3168    1.0000 </r>
       <r>  -17.2972    1.0000 </r>
       <r>  -16.9909    1.0000 </r>
       <r>  -15.9300    1.0000 </r>
       <r>  -15.0192    1.0000 </r>
       <r>  -15.0056    1.0000 </r>
       <r>  -13.2896    1.0000 </r>
       <r>  -13.2754    1.0000 </r>
       <r>  -11.3672    1.0000 </r>
       <r>  -10.9930    1.0000 </r>
       <r>  -10.9818    1.0000 </r>
       <r>  -10.5026    1.0000 </r>
       <r>  -10.4915    1.0000 </r>
       <r>   -9.8951    1.0000 </r>
       <r>   -9.6463    1.0000 </r>
       <r>   -9.5413    1.0000 </r>
       <r>   -9.5309    1.0000 </r>
       <r>   -9.3430    1.0000 </r>
       <r>   -8.6665    1.0000 </r>
       <r>   -8.4071    1.0000 </r>
       <r>   -8.1269    1.0000 </r>
       <r>   -8.1006    1.0000 </r>
       <r>   -7.4077    1.0000 </r>
       <r>   -7.0806    1.0000 </r>
       <r>   -7.0492    1.0000 </r>
       <r>   -5.8638    1.0000 </r>
       <r>   -5.8482    1.0000 </r>
       <r>   -5.0711    1.0000 </r>
       <r>   -5.0168    1.0000 </r>
       <r>   -5.0031    1.0000 </r>
       <r>   -1.0769    0.0000 </r>
       <r>   -0.8325    0.0000 </r>
       <r>   -0.8211    0.0000 </r>
       <r>    0.4043    0.0000 </r>
       <r>    0.4183    0.0000 </r>
       <r>    1.4634    0.0000 </r>
       <r>    1.4649    0.0000 </r>
       <r>    2.2671    0.0000 </r>
       <r>    2.2676    0.0000 </r>
       <r>    2.4853    0.0000 </r>
      </set>
      <set comment="kpoint 15">
       <r>  -21.6153    1.0000 </r>
       <r>  -21.2469    1.0000 </r>
       <r>  -21.2405    1.0000 </r>
       <r>  -19.0647    1.0000 </r>
       <r>  -19.0558    1.0000 </r>
       <r>  -18.3555    1.0000 </r>
       <r>  -17.0933    1.0000 </r>
       <r>  -17.0858    1.0000 </r>
       <r>  -16.7092    1.0000 </r>
       <r>  -15.6816    1.0000 </r>
       <r>  -15.6186    1.0000 </r>
       <r>  -15.6057    1.0000 </r>
       <r>  -12.9143    1.0000 </r>
       <r>  -12.2718    1.0000 </r>
       <r>  -12.2606    1.0000 </r>
       <r>  -11.3584    1.0000 </r>
       <r>  -10.5558    1.0000 </r>
       <r>  -10.5519    1.0000 </r>
       <r>  -10.5382    1.0000 </r>
       <r>   -9.8275    1.0000 </r>
       <r>   -9.8152    1.0000 </r>
       <r>   -9.5989    1.0000 </r>
       <r>   -9.1636    1.0000 </r>
       <r>   -9.1583    1.0000 </r>
       <r>   -8.8346    1.0000 </r>
       <r>   -8.8115    1.0000 </r>
       <r>   -7.8767    1.0000 </r>
       <r>   -7.6973    1.0000 </r>
       <r>   -7.6718    1.0000 </r>
       <r>   -7.0888    1.0000 </r>
       <r>   -6.6683    1.0000 </r>
       <r>   -6.6598    1.0000 </r>
       <r>   -5.8947    1.0000 </r>
       <r>   -5.0130    1.0000 </r>
       <r>   -5.0013    1.0000 </r>
       <r>   -4.6690    1.0000 </r>
       <r>   -1.2339    0.0000 </r>
       <r>   -1.0304    0.0000 </r>
       <r>   -1.0123    0.0000 </r>
       <r>    0.5314    0.0000 </r>
       <r>    1.3911    0.0000 </r>
       <r>    1.4745    0.0000 </r>
       <r>    1.4866    0.0000 </r>
       <r>    1.8999    0.0000 </r>
       <r>    1.9007    0.0000 </r>
       <r>    2.1942    0.0000 </r>
      </set>
      <set comment="kpoint 16">
       <r>  -21.6154    1.0000 </r>
       <r>  -21.2501    1.0000 </r>
       <r>  -21.2372    1.0000 </r>
       <r>  -19.0689    1.0000 </r>
       <r>  -19.0509    1.0000 </r>
       <r>  -18.3559    1.0000 </r>
       <r>  -17.0945    1.0000 </r>
       <r>  -17.0810    1.0000 </r>
       <r>  -16.7157    1.0000 </r>
       <r>  -15.6678    1.0000 </r>
       <r>  -15.6247    1.0000 </r>
       <r>  -15.6106    1.0000 </r>
       <r>  -12.9257    1.0000 </r>
       <r>  -12.2644    1.0000 </r>
       <r>  -12.2508    1.0000 </r>
       <r>  -11.3455    1.0000 </r>
       <r>  -10.5706    1.0000 </r>
       <r>  -10.5598    1.0000 </r>
       <r>  -10.5456    1.0000 </r>
       <r>   -9.8221    1.0000 </r>
       <r>   -9.8097    1.0000 </r>
       <r>   -9.5984    1.0000 </r>
       <r>   -9.1664    1.0000 </r>
       <r>   -9.1559    1.0000 </r>
       <r>   -8.8327    1.0000 </r>
       <r>   -8.8067    1.0000 </r>
       <r>   -7.8961    1.0000 </r>
       <r>   -7.7011    1.0000 </r>
       <r>   -7.6750    1.0000 </r>
       <r>   -7.0680    1.0000 </r>
       <r>   -6.6740    1.0000 </r>
       <r>   -6.6581    1.0000 </r>
       <r>   -5.8908    1.0000 </r>
       <r>   -5.0065    1.0000 </r>
       <r>   -4.9960    1.0000 </r>
       <r>   -4.6807    1.0000 </r>
       <r>   -1.2158    0.0000 </r>
       <r>   -1.0370    0.0000 </r>
       <r>   -1.0251    0.0000 </r>
       <r>    0.5217    0.0000 </r>
       <r>    1.3912    0.0000 </r>
       <r>    1.4774    0.0000 </r>
       <r>    1.4957    0.0000 </r>
       <r>    1.8995    0.0000 </r>
       <r>    1.9010    0.0000 </r>
       <r>    2.1943    0.0000 </r>
      </set>
     </set>
    </set>
   </array>
  </eigenvalues>
  <separator name="orbital magnetization" >
   <v name="MAGDIPOLOUT">      0.00000000      0.00000000      0.00000000</v>
  </separator>
  <dos>
   <i name="efermi">     -2.75533396 </i>
   <total>
    <array>
     <dimension dim="1">gridpoints</dimension>
     <dimension dim="2">spin</dimension>
     <field>energy</field>
     <field>total</field>
     <field>integrated</field>
     <set>
      <set comment="spin 1">
       <r>   -23.5113     0.0000     0.0000 </r>
       <r>   -23.4192     0.0000     0.0000 </r>
       <r>   -23.3272     0.0000     0.0000 </r>
       <r>   -23.2351     0.0000     0.0000 </r>
       <r>   -23.1430     0.0000     0.0000 </r>
       <r>   -23.0510     0.0000     0.0000 </r>
       <r>   -22.9589     0.0000     0.0000 </r>
       <r>   -22.8669     0.0000     0.0000 </r>
       <r>   -22.7748     0.0000     0.0000 </r>
       <r>   -22.6827     0.0000     0.0000 </r>
       <r>   -22.5907     0.0000     0.0000 </r>
       <r>   -22.4986     0.0000     0.0000 </r>
       <r>   -22.4066     0.0000     0.0000 </r>
       <r>   -22.3145     0.0236     0.0022 </r>
       <r>   -22.2224     1.1017     0.1036 </r>
       <r>   -22.1304     2.3658     0.3214 </r>
       <r>   -22.0383     3.5653     0.6496 </r>
       <r>   -21.9463     1.5380     0.7912 </r>
       <r>   -21.8542     4.0183     1.1611 </r>
       <r>   -21.7622     2.8376     1.4223 </r>
       <r>   -21.6701     1.1183     1.5253 </r>
       <r>   -21.5780     3.8484     1.8796 </r>
       <r>   -21.4860     3.9053     2.2391 </r>
       <r>   -21.3939     1.6537     2.3913 </r>
       <r>   -21.3019     1.3371     2.5144 </r>
       <r>   -21.2098     4.2554     2.9062 </r>
       <r>   -21.1177     4.6048     3.3301 </r>
       <r>   -21.0257     1.5159     3.4696 </r>
       <r>   -20.9336     1.1211     3.5729 </r>
       <r>   -20.8416     2.3767     3.7916 </r>
       <r>   -20.7495     5.5248     4.3003 </r>
       <r>   -20.6574     2.1241     4.4958 </r>
       <r>   -20.5654     4.2780     4.8896 </r>
       <r>   -20.4733     0.5343     4.9388 </r>
       <r>   -20.3813     0.5327     4.9878 </r>
       <r>   -20.2892     5.1605     5.4629 </r>
       <r>   -20.1971     4.6707     5.8929 </r>
       <r>   -20.1051     2.9007     6.1599 </r>
       <r>   -20.0130     1.1571     6.2665 </r>
       <r>   -19.9210     3.9946     6.6342 </r>
       <r>   -19.8289     0.2099     6.6535 </r>
       <r>   -19.7369     1.3349     6.7764 </r>
       <r>   -19.6448     7.6150     7.4774 </r>
       <r>   -19.5527     2.6218     7.7188 </r>
       <r>   -19.4607     4.1132     8.0974 </r>
       <r>   -19.3686     0.2796     8.1232 </r>
       <r>   -19.2766     1.8361     8.2922 </r>
       <r>   -19.1845     3.3993     8.6051 </r>
       <r>   -19.0924     1.0573     8.7025 </r>
       <r>   -19.0004     4.7092     9.1360 </r>
       <r>   -18.9083     5.7873     9.6688 </r>
       <r>   -18.8163     2.0460     9.8571 </r>
       <r>   -18.7242     4.0751    10.2323 </r>
       <r>   -18.6321     1.0224    10.3264 </r>
       <r>   -18.5401     0.0466    10.3307 </r>
       <r>   -18.4480     3.0325    10.6099 </r>
       <r>   -18.3560     3.9873    10.9769 </r>
       <r>   -18.2639     5.5907    11.4916 </r>
       <r>   -18.1719     2.5217    11.7237 </r>
       <r>   -18.0798     4.2105    12.1114 </r>
       <r>   -17.9877     1.9684    12.2926 </r>
       <r>   -17.8957     3.7804    12.6406 </r>
       <r>   -17.8036     1.4621    12.7752 </r>
       <r>   -17.7116     0.0064    12.7758 </r>
       <r>   -17.6195     1.7539    12.9372 </r>
       <r>   -17.5274     8.6983    13.7380 </r>
       <r>   -17.4354     4.9769    14.1962 </r>
       <r>   -17.3433     1.3849    14.3236 </r>
       <r>   -17.2513     4.8460    14.7698 </r>
       <r>   -17.1592     2.3436    14.9855 </r>
       <r>   -17.0671     3.8472    15.3397 </r>
       <r>   -16.9751     3.0817    15.6234 </r>
       <r>   -16.8830     0.9875    15.7143 </r>
       <r>   -16.7910     1.5404    15.8561 </r>
       <r>   -16.6989     8.7276    16.6595 </r>
       <r>   -16.6069     5.5036    17.1662 </r>
       <r>   -16.5148     0.1897    17.1837 </r>
       <r>   -16.4227     0.0000    17.1837 </r>
       <r>   -16.3307     0.0000    17.1837 </r>
       <r>   -16.2386     0.0404    17.1874 </r>
       <r>   -16.1466     1.7291    17.3466 </r>
       <r>   -16.0545     1.1522    17.4526 </r>
       <r>   -15.9624     4.7894    17.8935 </r>
       <r>   -15.8704     2.8545    18.1563 </r>
       <r>   -15.7783     0.5618    18.2080 </r>
       <r>   -15.6863     3.2253    18.5050 </r>
       <r>   -15.5942     5.3479    18.9973 </r>
       <r>   -15.5021     1.5763    19.1424 </r>
       <r>   -15.4101     0.0572    19.1477 </r>
       <r>   -15.3180     1.6417    19.2988 </r>
       <r>   -15.2260     9.9530    20.2150 </r>
       <r>   -15.1339     3.4192    20.5298 </r>
       <r>   -15.0418     0.9938    20.6213 </r>
       <r>   -14.9498     4.8980    21.0722 </r>
       <r>   -14.8577     4.4387    21.4808 </r>
       <r>   -14.7657     1.2961    21.6002 </r>
       <r>   -14.6736     2.8285    21.8605 </r>
       <r>   -14.5816     8.5170    22.6446 </r>
       <r>   -14.4895     0.9781    22.7346 </r>
       <r>   -14.3974     0.0945    22.7433 </r>
       <r>   -14.3054     3.7496    23.0885 </r>
       <r>   -14.2133     4.1644    23.4719 </r>
       <r>   -14.1213     4.4714    23.8835 </r>
       <r>   -14.0292     0.8962    23.9660 </r>
       <r>   -13.9371     3.3820    24.2774 </r>
       <r>   -13.8451     1.8584    24.4485 </r>
       <r>   -13.7530     1.2563    24.5641 </r>
       <r>   -13.6610     4.0022    24.9326 </r>
       <r>   -13.5689     2.3087    25.1451 </r>
       <r>   -13.4768     4.3317    25.5439 </r>
       <r>   -13.3848     1.4189    25.6745 </r>
       <r>   -13.2927     2.4362    25.8988 </r>
       <r>   -13.2007     3.6911    26.2386 </r>
       <r>   -13.1086     0.0693    26.2449 </r>
       <r>   -13.0166     0.7969    26.3183 </r>
       <r>   -12.9245     9.4274    27.1862 </r>
       <r>   -12.8324     5.0496    27.6510 </r>
       <r>   -12.7404     3.2851    27.9535 </r>
       <r>   -12.6483     0.3580    27.9864 </r>
       <r>   -12.5563     2.1346    28.1829 </r>
       <r>   -12.4642     0.2532    28.2062 </r>
       <r>   -12.3721     1.5852    28.3522 </r>
       <r>   -12.2801     7.9362    29.0828 </r>
       <r>   -12.1880     8.6977    29.8835 </r>
       <r>   -12.0960     3.0018    30.1598 </r>
       <r>   -12.0039     0.0463    30.1641 </r>
       <r>   -11.9118     1.8953    30.3385 </r>
       <r>   -11.8198     3.3940    30.6510 </r>
       <r>   -11.7277     3.6688    30.9887 </r>
       <r>   -11.6357     6.4761    31.5849 </r>
       <r>   -11.5436     0.5182    31.6326 </r>
       <r>   -11.4516     0.2290    31.6537 </r>
       <r>   -11.3595     6.4719    32.2495 </r>
       <r>   -11.2674     6.0525    32.8067 </r>
       <r>   -11.1754     3.3783    33.1177 </r>
       <r>   -11.0833     5.5626    33.6298 </r>
       <r>   -10.9913     4.7002    34.0625 </r>
       <r>   -10.8992     2.8319    34.3232 </r>
       <r>   -10.8071     0.0364    34.3265 </r>
       <r>   -10.7151     0.0033    34.3268 </r>
       <r>   -10.6230     1.4909    34.4641 </r>
       <r>   -10.5310    11.0010    35.4768 </r>
       <r>   -10.4389    10.6901    36.4609 </r>
       <r>   -10.3468     2.8207    36.7206 </r>
       <r>   -10.2548     5.9386    37.2673 </r>
       <r>   -10.1627     2.0521    37.4562 </r>
       <r>   -10.0707     4.2776    37.8500 </r>
       <r>    -9.9786     4.9756    38.3081 </r>
       <r>    -9.8865    10.8118    39.3034 </r>
       <r>    -9.7945    10.0181    40.2256 </r>
       <r>    -9.7024     6.2142    40.7977 </r>
       <r>    -9.6104     8.8045    41.6083 </r>
       <r>    -9.5183     8.8253    42.4207 </r>
       <r>    -9.4263     5.5245    42.9293 </r>
       <r>    -9.3342     3.7739    43.2767 </r>
       <r>    -9.2421    10.3927    44.2334 </r>
       <r>    -9.1501    11.9428    45.3329 </r>
       <r>    -9.0580    14.9133    46.7058 </r>
       <r>    -8.9660     6.8043    47.3322 </r>
       <r>    -8.8739     3.0159    47.6098 </r>
       <r>    -8.7818    12.4908    48.7597 </r>
       <r>    -8.6898     6.8347    49.3889 </r>
       <r>    -8.5977     7.4209    50.0721 </r>
       <r>    -8.5057     7.0731    50.7232 </r>
       <r>    -8.4136     8.0714    51.4663 </r>
       <r>    -8.3215     3.3384    51.7736 </r>
       <r>    -8.2295     4.0329    52.1449 </r>
       <r>    -8.1374     5.5366    52.6546 </r>
       <r>    -8.0454    13.8028    53.9252 </r>
       <r>    -7.9533     5.2490    54.4085 </r>
       <r>    -7.8613     4.9791    54.8668 </r>
       <r>    -7.7692     1.1726    54.9748 </r>
       <r>    -7.6771     8.4139    55.7493 </r>
       <r>    -7.5851     7.0162    56.3952 </r>
       <r>    -7.4930     5.1551    56.8698 </r>
       <r>    -7.4010     2.9238    57.1390 </r>
       <r>    -7.3089     7.3616    57.8167 </r>
       <r>    -7.2168     2.2655    58.0252 </r>
       <r>    -7.1248    10.0383    58.9493 </r>
       <r>    -7.0327     7.8017    59.6676 </r>
       <r>    -6.9407     3.4682    59.9868 </r>
       <r>    -6.8486     3.5895    60.3173 </r>
       <r>    -6.7565     0.1436    60.3305 </r>
       <r>    -6.6645     4.3026    60.7266 </r>
       <r>    -6.5724    10.5572    61.6985 </r>
       <r>    -6.4804     8.8414    62.5124 </r>
       <r>    -6.3883     4.1152    62.8913 </r>
       <r>    -6.2963     4.0408    63.2633 </r>
       <r>    -6.2042     1.7649    63.4257 </r>
       <r>    -6.1121     4.9674    63.8830 </r>
       <r>    -6.0201     4.8116    64.3260 </r>
       <r>    -5.9280     2.8613    64.5894 </r>
       <r>    -5.8360     7.9325    65.3196 </r>
       <r>    -5.7439     7.1450    65.9774 </r>
       <r>    -5.6518     3.4547    66.2954 </r>
       <r>    -5.5598     3.7810    66.6435 </r>
       <r>    -5.4677     1.4866    66.7804 </r>
       <r>    -5.3757     3.1880    67.0738 </r>
       <r>    -5.2836     2.0913    67.2664 </r>
       <r>    -5.1915     1.5204    67.4063 </r>
       <r>    -5.0995     3.2339    67.7040 </r>
       <r>    -5.0074    15.6249    69.1425 </r>
       <r>    -4.9154     6.1588    69.7094 </r>
       <r>    -4.8233     0.0528    69.7143 </r>
       <r>    -4.7312     0.1371    69.7269 </r>
       <r>    -4.6392     2.0628    69.9168 </r>
       <r>    -4.5471     0.4634    69.9595 </r>
       <r>    -4.4551     1.4136    70.0896 </r>
       <r>    -4.3630     3.9666    70.4548 </r>
       <r>    -4.2710     5.0520    70.9198 </r>
       <r>    -4.1789     2.8290    71.1803 </r>
       <r>    -4.0868     0.0369    71.1837 </r>
       <r>    -3.9948     0.0102    71.1846 </r>
       <r>    -3.9027     1.2199    71.2969 </r>
       <r>    -3.8107     1.4128    71.4270 </r>
       <r>    -3.7186     0.0173    71.4286 </r>
       <r>    -3.6265     0.0137    71.4298 </r>
       <r>    -3.5345     2.1858    71.6311 </r>
       <r>    -3.4424     3.0722    71.9139 </r>
       <r>    -3.3504     0.0487    71.9184 </r>
       <r>    -3.2583     0.0000    71.9184 </r>
       <r>    -3.1662     0.0000    71.9184 </r>
       <r>    -3.0742     0.0000    71.9184 </r>
       <r>    -2.9821     0.0000    71.9184 </r>
       <r>    -2.8901     0.0002    71.9184 </r>
       <r>    -2.7980     0.2186    71.9385 </r>
       <r>    -2.7060     1.3936    72.0668 </r>
       <r>    -2.6139     0.1610    72.0816 </r>
       <r>    -2.5218     0.0001    72.0816 </r>
       <r>    -2.4298     0.0000    72.0816 </r>
       <r>    -2.3377     0.0000    72.0816 </r>
       <r>    -2.2457     0.0000    72.0816 </r>
       <r>    -2.1536     0.0001    72.0816 </r>
       <r>    -2.0615     0.2977    72.1090 </r>
       <r>    -1.9695     4.1536    72.4914 </r>
       <r>    -1.8774     0.8680    72.5713 </r>
       <r>    -1.7854     0.0511    72.5760 </r>
       <r>    -1.6933     1.7673    72.7387 </r>
       <r>    -1.6012     0.8394    72.8160 </r>
       <r>    -1.5092     0.0033    72.8163 </r>
       <r>    -1.4171     0.0027    72.8166 </r>
       <r>    -1.3251     1.9181    72.9932 </r>
       <r>    -1.2330    11.4264    74.0451 </r>
       <r>    -1.1410     2.8030    74.3031 </r>
       <r>    -1.0489     3.5050    74.6258 </r>
       <r>    -0.9568     5.8311    75.1626 </r>
       <r>    -0.8648     1.7808    75.3265 </r>
       <r>    -0.7727     4.2586    75.7185 </r>
       <r>    -0.6807     3.3590    76.0278 </r>
       <r>    -0.5886     4.7759    76.4674 </r>
       <r>    -0.4965     2.9869    76.7424 </r>
       <r>    -0.4045     3.7518    77.0878 </r>
       <r>    -0.3124     3.3552    77.3967 </r>
       <r>    -0.2204     5.1938    77.8748 </r>
       <r>    -0.1283     0.9134    77.9589 </r>
       <r>    -0.0362     0.0035    77.9592 </r>
       <r>     0.0558     0.5328    78.0083 </r>
       <r>     0.1479     4.2506    78.3996 </r>
       <r>     0.2399     1.4977    78.5374 </r>
       <r>     0.3320     4.1640    78.9208 </r>
       <r>     0.4241     3.6368    79.2556 </r>
       <r>     0.5161     3.0941    79.5404 </r>
       <r>     0.6082     3.6484    79.8763 </r>
       <r>     0.7002     1.3278    79.9985 </r>
       <r>     0.7923     5.8443    80.5365 </r>
       <r>     0.8843     5.9039    81.0800 </r>
       <r>     0.9764     1.5003    81.2182 </r>
       <r>     1.0685     4.2728    81.6115 </r>
       <r>     1.1605     1.8159    81.7787 </r>
       <r>     1.2526     5.6854    82.3021 </r>
       <r>     1.3446     2.0931    82.4948 </r>
       <r>     1.4367     6.8899    83.1290 </r>
       <r>     1.5288    14.0787    84.4251 </r>
       <r>     1.6208     4.4818    84.8377 </r>
       <r>     1.7129     4.6482    85.2656 </r>
       <r>     1.8049     3.3558    85.5745 </r>
       <r>     1.8970     8.7838    86.3832 </r>
       <r>     1.9891     8.9039    87.2028 </r>
       <r>     2.0811     9.2360    88.0531 </r>
       <r>     2.1732     6.9018    88.6885 </r>
       <r>     2.2652     6.9064    89.3243 </r>
       <r>     2.3573     7.4118    90.0066 </r>
       <r>     2.4493     5.9827    90.5573 </r>
       <r>     2.5414     4.7344    90.9932 </r>
       <r>     2.6335     1.7385    91.1532 </r>
       <r>     2.7255     1.9365    91.3315 </r>
       <r>     2.8176     4.6175    91.7566 </r>
       <r>     2.9096     2.5141    91.9880 </r>
       <r>     3.0017     0.1299    92.0000 </r>
       <r>     3.0938     0.0000    92.0000 </r>
       <r>     3.1858     0.0000    92.0000 </r>
       <r>     3.2779     0.0000    92.0000 </r>
       <r>     3.3699     0.0000    92.0000 </r>
       <r>     3.4620     0.0000    92.0000 </r>
       <r>     3.5541     0.0000    92.0000 </r>
       <r>     3.6461     0.0000    92.0000 </r>
       <r>     3.7382     0.0000    92.0000 </r>
       <r>     3.8302     0.0000    92.0000 </r>
       <r>     3.9223     0.0000    92.0000 </r>
       <r>     4.0143     0.0000    92.0000 </r>
       <r>     4.1064     0.0000    92.0000 </r>
      </set>
     </set>
    </array>
   </total>
  </dos>
 </calculation>
 <structure name="finalpos" >
  <crystal>
   <varray name="basis" >
    <v>       7.40170591       0.00000000       0.00000000 </v>
    <v>      -3.70085295       6.41006527       0.00000000 </v>
    <v>       0.00000000       0.00000000      20.00000000 </v>
   </varray>
   <i name="volume">    948.90835877 </i>
   <varray name="rec_basis" >
    <v>       0.13510399       0.07800233       0.00000000 </v>
    <v>       0.00000000       0.15600465       0.00000000 </v>
    <v>       0.00000000       0.00000000       0.05000000 </v>
   </varray>
  </crystal>
  <varray name="positions" >
   <v>       0.00078002       0.00156005       0.49950000 </v>
   <v>       0.33333333       0.00000000       0.50000000 </v>
   <v>       0.66666667       0.00000000       0.50000000 </v>
   <v>       0.00000000       0.33333333       0.50000000 </v>
   <v>       0.33333333       0.33333333       0.50000000 </v>
   <v>       0.66666667       0.33333333       0.50000000 </v>
   <v>       0.00000000       0.66666667       0.50000000 </v>
   <v>       0.33333333       0.66666667       0.50000000 </v>
   <v>       0.66666667       0.66666667       0.50000000 </v>
   <v>       0.22222222       0.11111111       0.50000000 </v>
   <v>       0.55555556       0.11111111       0.50000000 </v>
   <v>       0.88888889       0.11111111       0.50000000 </v>
   <v>       0.22222222       0.44444444       0.50000000 </v>
   <v>       0.55555556       0.44444444       0.50000000 </v>
   <v>       0.88888889       0.44444444       0.50000000 </v>
   <v>       0.22222222       0.77777778       0.50000000 </v>
   <v>       0.55555556       0.77777778       0.50000000 </v>
   <v>       0.88888889       0.77777778       0.50000000 </v>
  </varray>
 </structure>
</modeling>
