<?xml version="1.0" encoding="ISO-8859-1"?>
<modeling>
 <generator>
  <i name="program" type="string">vasp </i>
  <i name="version" type="string">6.4.1  </i>
  <i name="subversion" type="string">05Apr23 (build Feb 12 2025 00:37:39) complex                          parallel </i>
  <i name="platform" type="string">LinuxIFC </i>
  <i name="date" type="string">2025 02 14 </i>
  <i name="time" type="string">05:49:57 </i>
 </generator>
 <incar>
  <i type="string" name="SYSTEM">SCF</i>
  <i type="int" name="ISTART">     0</i>
  <i type="int" name="ICHARG">     2</i>
  <i type="int" name="NELM">    60</i>
  <i type="int" name="NELMIN">     6</i>
  <i name="EDIFF">      0.00000100</i>
  <i name="EDIFFG">     -0.00000100</i>
  <i name="ENCUT">    600.00000000</i>
  <i type="string" name="LREAL">Auto</i>
  <i type="int" name="ISMEAR">     0</i>
  <i name="SIGMA">      0.05000000</i>
  <i type="logical" name="LWAVE"> F  </i>
  <i type="logical" name="LCHARG"> F  </i>
 </incar>
 <primitive_cell>
  <structure name="primitive_cell" >
   <crystal>
    <varray name="basis" >
     <v>       7.40170591       0.00000000       0.00000000 </v>
     <v>      -3.70085295       6.41006527       0.00000000 </v>
     <v>       0.00000000       0.00000000      20.00000000 </v>
    </varray>
    <i name="volume">    948.90835877 </i>
    <varray name="rec_basis" >
     <v>       0.13510399       0.07800233       0.00000000 </v>
     <v>       0.00000000       0.15600465       0.00000000 </v>
     <v>       0.00000000       0.00000000       0.05000000 </v>
    </varray>
   </crystal>
   <varray name="positions" >
    <v>       0.99921998       0.99843995       0.50000000 </v>
    <v>       0.33333333       0.00000000       0.50000000 </v>
    <v>       0.66666667       0.00000000       0.50000000 </v>
    <v>       1.00000000       0.33333333       0.50000000 </v>
    <v>       0.33333333       0.33333333       0.50000000 </v>
    <v>       0.66666667       0.33333333       0.50000000 </v>
    <v>       1.00000000       0.66666667       0.50000000 </v>
    <v>       0.33333333       0.66666667       0.50000000 </v>
    <v>       0.66666667       0.66666667       0.50000000 </v>
    <v>       0.22087118       0.11111111       0.50000000 </v>
    <v>       0.55555556       0.11111111       0.50000000 </v>
    <v>       0.88888889       0.11111111       0.50000000 </v>
    <v>       0.22222222       0.44444444       0.50000000 </v>
    <v>       0.55555556       0.44444444       0.50000000 </v>
    <v>       0.88888889       0.44444444       0.50000000 </v>
    <v>       0.22222222       0.77777778       0.50000000 </v>
    <v>       0.55555556       0.77777778       0.50000000 </v>
    <v>       0.88888889       0.77777778       0.50000000 </v>
   </varray>
  </structure>
  <varray name="primitive_index" >
   <v type="int" >        1 </v>
   <v type="int" >        2 </v>
   <v type="int" >        3 </v>
   <v type="int" >        4 </v>
   <v type="int" >        5 </v>
   <v type="int" >        6 </v>
   <v type="int" >        7 </v>
   <v type="int" >        8 </v>
   <v type="int" >        9 </v>
   <v type="int" >       10 </v>
   <v type="int" >       11 </v>
   <v type="int" >       12 </v>
   <v type="int" >       13 </v>
   <v type="int" >       14 </v>
   <v type="int" >       15 </v>
   <v type="int" >       16 </v>
   <v type="int" >       17 </v>
   <v type="int" >       18 </v>
  </varray>
 </primitive_cell>
 <kpoints>
  <generation param="Gamma">
   <v type="int" name="divisions">       7        7        1 </v>
   <v name="usershift">      0.00000000       0.00000000       0.00000000 </v>
   <v name="genvec1">      0.14285714       0.00000000       0.00000000 </v>
   <v name="genvec2">      0.00000000       0.14285714       0.00000000 </v>
   <v name="genvec3">      0.00000000       0.00000000       1.00000000 </v>
   <v name="shift">      0.00000000       0.00000000       0.00000000 </v>
  </generation>
  <varray name="kpointlist" >
   <v>       0.00000000       0.00000000       0.00000000 </v>
   <v>       0.14285714       0.00000000       0.00000000 </v>
   <v>       0.00000000       0.14285714       0.00000000 </v>
   <v>      -0.14285714       0.14285714       0.00000000 </v>
   <v>       0.28571429       0.00000000       0.00000000 </v>
   <v>       0.00000000       0.28571429       0.00000000 </v>
   <v>      -0.28571429       0.28571429       0.00000000 </v>
   <v>       0.42857143       0.00000000       0.00000000 </v>
   <v>       0.00000000       0.42857143       0.00000000 </v>
   <v>      -0.42857143       0.42857143       0.00000000 </v>
   <v>       0.14285714       0.14285714       0.00000000 </v>
   <v>      -0.14285714       0.28571429       0.00000000 </v>
   <v>      -0.28571429       0.14285714       0.00000000 </v>
   <v>       0.28571429       0.14285714       0.00000000 </v>
   <v>      -0.14285714       0.42857143       0.00000000 </v>
   <v>      -0.42857143       0.28571429       0.00000000 </v>
   <v>      -0.28571429       0.42857143       0.00000000 </v>
   <v>       0.14285714       0.28571429       0.00000000 </v>
   <v>       0.42857143      -0.14285714       0.00000000 </v>
   <v>       0.42857143       0.14285714       0.00000000 </v>
   <v>      -0.14285714      -0.42857143       0.00000000 </v>
   <v>       0.42857143       0.42857143       0.00000000 </v>
   <v>       0.28571429       0.28571429       0.00000000 </v>
   <v>      -0.28571429      -0.42857143       0.00000000 </v>
   <v>       0.42857143       0.28571429       0.00000000 </v>
  </varray>
  <varray name="weights" >
   <v>       0.02040816 </v>
   <v>       0.04081633 </v>
   <v>       0.04081633 </v>
   <v>       0.04081633 </v>
   <v>       0.04081633 </v>
   <v>       0.04081633 </v>
   <v>       0.04081633 </v>
   <v>       0.04081633 </v>
   <v>       0.04081633 </v>
   <v>       0.04081633 </v>
   <v>       0.04081633 </v>
   <v>       0.04081633 </v>
   <v>       0.04081633 </v>
   <v>       0.04081633 </v>
   <v>       0.04081633 </v>
   <v>       0.04081633 </v>
   <v>       0.04081633 </v>
   <v>       0.04081633 </v>
   <v>       0.04081633 </v>
   <v>       0.04081633 </v>
   <v>       0.04081633 </v>
   <v>       0.04081633 </v>
   <v>       0.04081633 </v>
   <v>       0.04081633 </v>
   <v>       0.04081633 </v>
  </varray>
 </kpoints>
 <parameters>
  <separator name="general" >
   <i type="string" name="SYSTEM">SCF</i>
   <i type="logical" name="LCOMPAT"> F  </i>
  </separator>
  <separator name="electronic" >
   <i type="string" name="PREC">normal</i>
   <i name="ENMAX">    600.00000000</i>
   <i name="ENAUG">    644.87300000</i>
   <i name="EDIFF">      0.00000100</i>
   <i type="int" name="IALGO">    38</i>
   <i type="int" name="IWAVPR">    10</i>
   <i type="int" name="NBANDS">    46</i>
   <i type="int" name="NBANDSLOW">    -1</i>
   <i type="int" name="NBANDSHIGH">    -1</i>
   <i name="NELECT">     72.00000000</i>
   <i type="int" name="TURBO">     0</i>
   <i type="int" name="IRESTART">     0</i>
   <i type="int" name="NREBOOT">     0</i>
   <i type="int" name="NMIN">     0</i>
   <i name="EREF">      0.00000000</i>
   <separator name="electronic smearing" >
    <i type="int" name="ISMEAR">     0</i>
    <i name="SIGMA">      0.05000000</i>
    <i name="KSPACING">      0.50000000</i>
    <i type="logical" name="KGAMMA"> T  </i>
    <i type="logical" name="KBLOWUP"> T  </i>
   </separator>
   <separator name="electronic projectors" >
    <i type="logical" name="LREAL"> T  </i>
    <v name="ROPT">     -0.00050000</v>
    <i type="int" name="LMAXPAW">  -100</i>
    <i type="int" name="LMAXMIX">     2</i>
    <i type="logical" name="NLSPLINE"> F  </i>
   </separator>
   <separator name="electronic startup" >
    <i type="int" name="ISTART">     0</i>
    <i type="int" name="ICHARG">     2</i>
    <i type="int" name="INIWAV">     1</i>
   </separator>
   <separator name="electronic spin" >
    <i type="int" name="ISPIN">     1</i>
    <i type="logical" name="LNONCOLLINEAR"> F  </i>
    <v name="MAGMOM">      1.00000000      1.00000000      1.00000000      1.00000000      1.00000000      1.00000000      1.00000000      1.00000000      1.00000000      1.00000000      1.00000000      1.00000000      1.00000000      1.00000000      1.00000000      1.00000000      1.00000000      1.00000000</v>
    <i name="NUPDOWN">     -1.00000000</i>
    <i type="logical" name="LSORBIT"> F  </i>
    <v name="SAXIS">      0.00000000      0.00000000      1.00000000</v>
    <i type="logical" name="LSPIRAL"> F  </i>
    <v name="QSPIRAL">      0.00000000      0.00000000      0.00000000</v>
    <i type="logical" name="LZEROZ"> F  </i>
   </separator>
   <separator name="electronic exchange-correlation" >
    <i type="logical" name="LASPH"> F  </i>
    <i type="logical" name="LMETAGGA"> F  </i>
   </separator>
   <separator name="electronic convergence" >
    <i type="int" name="NELM">    60</i>
    <i type="int" name="NELMDL">    -5</i>
    <i type="int" name="NELMIN">     6</i>
    <i name="ENINI">    600.00000000</i>
    <separator name="electronic convergence detail" >
     <i type="logical" name="LDIAG"> T  </i>
     <i type="logical" name="LSUBROT"> F  </i>
     <i name="WEIMIN">      0.00000000</i>
     <i name="EBREAK">      0.00000000</i>
     <i name="DEPER">      0.30000000</i>
     <i type="int" name="NRMM">     4</i>
     <i name="TIME">      0.40000000</i>
    </separator>
   </separator>
   <separator name="electronic mixer" >
    <i name="AMIX">      0.40000000</i>
    <i name="BMIX">      1.00000000</i>
    <i name="AMIN">      0.10000000</i>
    <i name="AMIX_MAG">      1.60000000</i>
    <i name="BMIX_MAG">      1.00000000</i>
    <separator name="electronic mixer details" >
     <i type="int" name="IMIX">     4</i>
     <i type="logical" name="MIXFIRST"> F  </i>
     <i type="int" name="MAXMIX">   -45</i>
     <i name="WC">    100.00000000</i>
     <i type="int" name="INIMIX">     1</i>
     <i type="int" name="MIXPRE">     1</i>
     <i type="int" name="MREMOVE">     5</i>
    </separator>
   </separator>
   <separator name="electronic dipolcorrection" >
    <i type="logical" name="LDIPOL"> F  </i>
    <i type="logical" name="LMONO"> F  </i>
    <i type="int" name="IDIPOL">     0</i>
    <i name="EPSILON">      1.00000000</i>
    <v name="DIPOL">   -100.00000000   -100.00000000   -100.00000000</v>
    <i name="EFIELD">      0.00000000</i>
   </separator>
  </separator>
  <separator name="grids" >
   <i type="int" name="NGX">    48</i>
   <i type="int" name="NGY">    48</i>
   <i type="int" name="NGZ">   120</i>
   <i type="int" name="NGXF">    96</i>
   <i type="int" name="NGYF">    96</i>
   <i type="int" name="NGZF">   240</i>
   <i type="logical" name="ADDGRID"> F  </i>
  </separator>
  <separator name="ionic" >
   <i type="int" name="NSW">     0</i>
   <i type="int" name="IBRION">    -1</i>
   <i type="int" name="MDALGO">     0</i>
   <i type="int" name="ISIF">     2</i>
   <i name="PSTRESS">      0.00000000</i>
   <i name="EDIFFG">     -0.00000100</i>
   <i type="int" name="NFREE">     0</i>
   <i name="POTIM">      0.50000000</i>
   <i name="SMASS">     -3.00000000</i>
   <i name="SCALEE">      1.00000000</i>
  </separator>
  <separator name="ionic md" >
   <i name="TEBEG">      0.00010000</i>
   <i name="TEEND">      0.00010000</i>
   <i type="int" name="NBLOCK">     1</i>
   <i type="int" name="KBLOCK">     1</i>
   <i type="int" name="NPACO">   256</i>
   <i name="APACO">     10.00000000</i>
  </separator>
  <separator name="symmetry" >
   <i type="int" name="ISYM">     2</i>
   <i name="SYMPREC">      0.00001000</i>
  </separator>
  <separator name="dos" >
   <i type="int" name="LORBIT">     0</i>
   <v name="RWIGS">     -1.00000000</v>
   <i type="int" name="NEDOS">   301</i>
   <i name="EMIN">     10.00000000</i>
   <i name="EMAX">    -10.00000000</i>
   <i name="EFERMI">      0.00000000</i>
  </separator>
  <separator name="writing" >
   <i type="int" name="NWRITE">     2</i>
   <i type="logical" name="LWAVE"> F  </i>
   <i type="logical" name="LDOWNSAMPLE"> F  </i>
   <i type="logical" name="LCHARG"> F  </i>
   <i type="logical" name="LPARD"> F  </i>
   <i type="logical" name="LVTOT"> F  </i>
   <i type="logical" name="LVHAR"> F  </i>
   <i type="logical" name="LELF"> F  </i>
   <i type="logical" name="LOPTICS"> F  </i>
   <v name="STM">      0.00000000      0.00000000      0.00000000      0.00000000      0.00000000      0.00000000      0.00000000</v>
  </separator>
  <separator name="performance" >
   <i type="int" name="NPAR">     2</i>
   <i type="int" name="NSIM">     4</i>
   <i type="int" name="NBLK">    -1</i>
   <i type="logical" name="LPLANE"> T  </i>
   <i type="logical" name="LSCALAPACK"> T  </i>
   <i type="logical" name="LSCAAWARE"> F  </i>
   <i type="logical" name="LSCALU"> F  </i>
   <i type="logical" name="LASYNC"> F  </i>
   <i type="logical" name="LORBITALREAL"> F  </i>
  </separator>
  <separator name="miscellaneous" >
   <i type="int" name="IDIOT">     3</i>
   <i type="int" name="PHON_NSTRUCT">    -1</i>
   <i type="logical" name="LMUSIC"> F  </i>
   <v name="POMASS">     12.01100000</v>
   <v name="DARWINR">      0.00000000</v>
   <v name="DARWINV">      1.00000000</v>
   <i type="logical" name="LCORR"> T  </i>
  </separator>
  <i type="logical" name="GGA_COMPAT"> T  </i>
  <i type="logical" name="LBERRY"> F  </i>
  <i type="int" name="ICORELEVEL">     0</i>
  <i type="logical" name="LDAU"> F  </i>
  <i type="int" name="I_CONSTRAINED_M">     0</i>
  <separator name="electronic exchange-correlation" >
   <i type="string" name="GGA">--</i>
   <i type="int" name="VOSKOWN">     0</i>
   <i type="logical" name="LHFCALC"> F  </i>
   <i type="string" name="PRECFOCK"></i>
   <i type="logical" name="LSYMGRAD"> F  </i>
   <i type="logical" name="LHFONE"> F  </i>
   <i type="logical" name="LRHFCALC"> F  </i>
   <i type="logical" name="LTHOMAS"> F  </i>
   <i type="logical" name="LMODELHF"> F  </i>
   <i type="logical" name="LFOCKACE"> F  </i>
   <i name="ENCUT4O">     -1.00000000</i>
   <i type="int" name="EXXOEP">     0</i>
   <i type="int" name="FOURORBIT">     0</i>
   <i name="AEXX">      0.00000000</i>
   <i name="HFALPHA">      0.00000000</i>
   <i name="MCALPHA">      0.00000000</i>
   <i name="ALDAX">      1.00000000</i>
   <i name="AGGAX">      1.00000000</i>
   <i name="ALDAC">      1.00000000</i>
   <i name="AGGAC">      1.00000000</i>
   <i type="int" name="NKREDX">     1</i>
   <i type="int" name="NKREDY">     1</i>
   <i type="int" name="NKREDZ">     1</i>
   <i type="logical" name="SHIFTRED"> F  </i>
   <i type="logical" name="ODDONLY"> F  </i>
   <i type="logical" name="EVENONLY"> F  </i>
   <i type="int" name="LMAXFOCK">     0</i>
   <i type="int" name="NMAXFOCKAE">     0</i>
   <i type="logical" name="LFOCKAEDFT"> F  </i>
   <i name="HFSCREEN">      0.00000000</i>
   <i name="HFSCREENC">      0.00000000</i>
   <i type="int" name="NBANDSGWLOW">     0</i>
  </separator>
  <separator name="vdW DFT" >
   <i type="logical" name="LUSE_VDW"> F  </i>
   <i type="int" name="IVDW_NL">     1</i>
   <i type="logical" name="LSPIN_VDW"> F  </i>
   <i name="Zab_VDW">     -0.84910000</i>
   <i name="PARAM1">      0.12340000</i>
   <i name="PARAM2">      1.00000000</i>
   <i name="PARAM3">      0.00000000</i>
  </separator>
  <separator name="model GW" >
   <i type="int" name="MODEL_GW">     0</i>
   <i name="MODEL_EPS0">     31.63027863</i>
   <i name="MODEL_ALPHA">      1.00000000</i>
  </separator>
  <separator name="linear response parameters" >
   <i type="logical" name="LEPSILON"> F  </i>
   <i type="logical" name="LRPA"> F  </i>
   <i type="logical" name="LNABLA"> F  </i>
   <i type="logical" name="LVEL"> F  </i>
   <i name="CSHIFT">      0.10000000</i>
   <i name="OMEGAMAX">     -1.00000000</i>
   <i name="DEG_THRESHOLD">      0.00200000</i>
   <i name="RTIME">     -0.10000000</i>
   <i name="WPLASMAI">      0.00000000</i>
   <v name="DFIELD">      0.00000000      0.00000000      0.00000000</v>
   <v name="WPLASMA">      0.00000000      0.00000000      0.00000000      0.00000000      0.00000000      0.00000000      0.00000000      0.00000000      0.00000000</v>
  </separator>
  <separator name="orbital magnetization" >
   <i type="logical" name="NUCIND"> F  </i>
   <v name="MAGPOS">      0.00000000      0.00000000      0.00000000</v>
   <i type="logical" name="LNICSALL"> T  </i>
   <i type="logical" name="ORBITALMAG"> F  </i>
   <i type="logical" name="LMAGBLOCH"> F  </i>
   <i type="logical" name="LCHIMAG"> F  </i>
   <i type="logical" name="LGAUGE"> T  </i>
   <i type="int" name="MAGATOM">     0</i>
   <v name="MAGDIPOL">      0.00000000      0.00000000      0.00000000</v>
   <v name="AVECCONST">      0.00000000      0.00000000      0.00000000</v>
  </separator>
  <separator name="response functions" >
   <i type="logical" name="LALL_IN_ONE"> F  </i>
   <i type="int" name="IALL_IN_ONE">    -1</i>
   <i type="int" name="NBANDS_WAVE">    -1</i>
   <i type="logical" name="LFINITE_TEMPERATURE"> F  </i>
   <i type="logical" name="LADDER"> F  </i>
   <i type="logical" name="LRPAFORCE"> F  </i>
   <i type="logical" name="LFXC"> F  </i>
   <i type="logical" name="LHARTREE"> T  </i>
   <i type="int" name="IBSE">     0</i>
   <v type="int" name="KPOINT">    -1     0     0     0</v>
   <i type="logical" name="LTCTC"> F  </i>
   <i type="logical" name="LTCTE"> F  </i>
   <i type="logical" name="LTETE"> F  </i>
   <i type="logical" name="LTRIPLET"> F  </i>
   <i type="logical" name="LFXCEPS"> F  </i>
   <i type="logical" name="LFXHEG"> F  </i>
   <i type="int" name="NATURALO">     2</i>
   <i type="logical" name="LHOLEGF"> F  </i>
   <i type="logical" name="L2ORDER"> F  </i>
   <i type="logical" name="LDMP1"> F  </i>
   <i type="logical" name="LMP2LT"> F  </i>
   <i type="logical" name="LSMP2LT"> F  </i>
   <i type="logical" name="LGWLF"> F  </i>
   <i name="ENCUTGW">     -1.60000002</i>
   <i name="ENCUTGWSOFT">     -1.60000002</i>
   <i name="ENCUTLF">     -1.00000000</i>
   <i type="logical" name="LESF_SPLINES"> F  </i>
   <i type="int" name="LMAXMP2">    -1</i>
   <i name="SCISSOR">      0.00000000</i>
   <i type="int" name="NOMEGA">     0</i>
   <i type="int" name="NOMEGAR">     0</i>
   <i type="int" name="NBANDSGW">    -1</i>
   <i type="int" name="NBANDSO">    -1</i>
   <i type="int" name="NBANDSV">    -1</i>
   <i type="int" name="NELMGW">     1</i>
   <i type="int" name="NELMHF">     1</i>
   <i type="int" name="DIM">     3</i>
   <i type="int" name="IESPILON">     4</i>
   <i type="int" name="ANTIRES">     0</i>
   <i name="OMEGAMAX">    -30.00000000</i>
   <i name="OMEGAMIN">    -30.00000000</i>
   <i name="OMEGATL">   -200.00000000</i>
   <i type="int" name="OMEGAGRID">     0</i>
   <i name="CSHIFT">     -0.10000000</i>
   <i type="logical" name="LSELFENERGY"> F  </i>
   <i type="logical" name="LSPECTRAL"> F  </i>
   <i type="logical" name="LSPECTRALGW"> F  </i>
   <i type="logical" name="LSINGLES"> F  </i>
   <i type="logical" name="LFERMIGW"> F  </i>
   <i type="logical" name="ODDONLYGW"> F  </i>
   <i type="logical" name="EVENONLYGW"> F  </i>
   <i type="int" name="NKREDLFX">     1</i>
   <i type="int" name="NKREDLFY">     1</i>
   <i type="int" name="NKREDLFZ">     1</i>
   <i type="int" name="MAXMEM">  2800</i>
   <i type="int" name="TELESCOPE">     0</i>
   <i type="int" name="NTAUPAR">    -1</i>
   <i type="int" name="NOMEGAPAR">    -1</i>
   <i name="DAMP_NEWTON">      0.80000001</i>
   <i name="LAMBDA">      1.00000000</i>
  </separator>
  <separator name="External order field" >
   <i name="OFIELD_KAPPA">      0.00000000</i>
   <v name="OFIELD_K">      0.00000000      0.00000000      0.00000000</v>
   <i name="OFIELD_Q6_NEAR">      0.00000000</i>
   <i name="OFIELD_Q6_FAR">      0.00000000</i>
   <i name="OFIELD_A">      0.00000000</i>
  </separator>
  <separator name="optional k-points parameters" >
   <i type="int" name="KPOINTS_OPT_MODE">     1</i>
   <i type="logical" name="LKPOINTS_OPT"> F  </i>
  </separator>
 </parameters>
 <atominfo>
  <atoms>      18 </atoms>
  <types>       1 </types>
  <array name="atoms" >
   <dimension dim="1">ion</dimension>
   <field type="string">element</field>
   <field type="int">atomtype</field>
   <set>
    <rc><c>C </c><c>   1</c></rc>
    <rc><c>C </c><c>   1</c></rc>
    <rc><c>C </c><c>   1</c></rc>
    <rc><c>C </c><c>   1</c></rc>
    <rc><c>C </c><c>   1</c></rc>
    <rc><c>C </c><c>   1</c></rc>
    <rc><c>C </c><c>   1</c></rc>
    <rc><c>C </c><c>   1</c></rc>
    <rc><c>C </c><c>   1</c></rc>
    <rc><c>C </c><c>   1</c></rc>
    <rc><c>C </c><c>   1</c></rc>
    <rc><c>C </c><c>   1</c></rc>
    <rc><c>C </c><c>   1</c></rc>
    <rc><c>C </c><c>   1</c></rc>
    <rc><c>C </c><c>   1</c></rc>
    <rc><c>C </c><c>   1</c></rc>
    <rc><c>C </c><c>   1</c></rc>
    <rc><c>C </c><c>   1</c></rc>
   </set>
  </array>
  <array name="atomtypes" >
   <dimension dim="1">type</dimension>
   <field type="int">atomspertype</field>
   <field type="string">element</field>
   <field>mass</field>
   <field>valence</field>
   <field type="string">pseudopotential</field>
   <set>
    <rc><c>  18</c><c>C </c><c>     12.01100000</c><c>      4.00000000</c><c>  PAW_PBE C 08Apr2002                   </c></rc>
   </set>
  </array>
 </atominfo>
 <structure name="initialpos" >
  <crystal>
   <varray name="basis" >
    <v>       7.40170591       0.00000000       0.00000000 </v>
    <v>      -3.70085295       6.41006527       0.00000000 </v>
    <v>       0.00000000       0.00000000      20.00000000 </v>
   </varray>
   <i name="volume">    948.90835877 </i>
   <varray name="rec_basis" >
    <v>       0.13510399       0.07800233       0.00000000 </v>
    <v>       0.00000000       0.15600465       0.00000000 </v>
    <v>       0.00000000       0.00000000       0.05000000 </v>
   </varray>
  </crystal>
  <varray name="positions" >
   <v>       0.99921998       0.99843995       0.50000000 </v>
   <v>       0.33333333       0.00000000       0.50000000 </v>
   <v>       0.66666667       0.00000000       0.50000000 </v>
   <v>       0.00000000       0.33333333       0.50000000 </v>
   <v>       0.33333333       0.33333333       0.50000000 </v>
   <v>       0.66666667       0.33333333       0.50000000 </v>
   <v>       0.00000000       0.66666667       0.50000000 </v>
   <v>       0.33333333       0.66666667       0.50000000 </v>
   <v>       0.66666667       0.66666667       0.50000000 </v>
   <v>       0.22087118       0.11111111       0.50000000 </v>
   <v>       0.55555556       0.11111111       0.50000000 </v>
   <v>       0.88888889       0.11111111       0.50000000 </v>
   <v>       0.22222222       0.44444444       0.50000000 </v>
   <v>       0.55555556       0.44444444       0.50000000 </v>
   <v>       0.88888889       0.44444444       0.50000000 </v>
   <v>       0.22222222       0.77777778       0.50000000 </v>
   <v>       0.55555556       0.77777778       0.50000000 </v>
   <v>       0.88888889       0.77777778       0.50000000 </v>
  </varray>
 </structure>
 <calculation>
  <scstep>
   <time name="dav">    5.88    6.10</time>
   <time name="total">    5.98    6.21</time>
   <energy>
    <i name="alphaZ">     28.04858418 </i>
    <i name="ewald">  11638.86651017 </i>
    <i name="hartreedc"> -13553.17844729 </i>
    <i name="XCdc">    237.17757495 </i>
    <i name="pawpsdc">   1953.39683484 </i>
    <i name="pawaedc">  -1963.64613940 </i>
    <i name="eentropy">     -0.00842876 </i>
    <i name="bandstr">   -257.76160625 </i>
    <i name="atom">   2648.70517965 </i>
    <i name="e_fr_energy">    731.60006210 </i>
    <i name="e_wo_entrp">    731.60849085 </i>
    <i name="e_0_energy">    731.60427648 </i>
   </energy>
  </scstep>
  <scstep>
   <time name="dav">    7.88    8.19</time>
   <time name="total">    7.88    8.19</time>
   <energy>
    <i name="e_fr_energy">    -23.94463345 </i>
    <i name="e_wo_entrp">    -23.94432764 </i>
    <i name="e_0_energy">    -23.94448054 </i>
   </energy>
  </scstep>
  <scstep>
   <time name="dav">    6.31    6.55</time>
   <time name="total">    6.31    6.55</time>
   <energy>
    <i name="e_fr_energy">   -172.27352598 </i>
    <i name="e_wo_entrp">   -172.27220040 </i>
    <i name="e_0_energy">   -172.27286319 </i>
   </energy>
  </scstep>
  <scstep>
   <time name="dav">    6.19    5.24</time>
   <time name="total">    6.19    5.24</time>
   <energy>
    <i name="e_fr_energy">   -177.34650198 </i>
    <i name="e_wo_entrp">   -177.34438208 </i>
    <i name="e_0_energy">   -177.34544203 </i>
   </energy>
  </scstep>
  <scstep>
   <time name="dav">    7.10    7.37</time>
   <time name="total">    7.36    7.64</time>
   <energy>
    <i name="e_fr_energy">   -177.48401086 </i>
    <i name="e_wo_entrp">   -177.48188383 </i>
    <i name="e_0_energy">   -177.48294734 </i>
   </energy>
  </scstep>
  <scstep>
   <time name="dav">    5.91    6.13</time>
   <time name="total">    6.26    6.50</time>
   <energy>
    <i name="e_fr_energy">   -169.31652670 </i>
    <i name="e_wo_entrp">   -169.31434905 </i>
    <i name="e_0_energy">   -169.31543787 </i>
   </energy>
  </scstep>
  <scstep>
   <time name="dav">    5.86    6.09</time>
   <time name="total">    6.22    6.46</time>
   <energy>
    <i name="e_fr_energy">   -166.14903230 </i>
    <i name="e_wo_entrp">   -166.14684030 </i>
    <i name="e_0_energy">   -166.14793630 </i>
   </energy>
  </scstep>
  <scstep>
   <time name="dav">    6.19    6.43</time>
   <time name="total">    6.54    6.79</time>
   <energy>
    <i name="e_fr_energy">   -166.08609202 </i>
    <i name="e_wo_entrp">   -166.08390634 </i>
    <i name="e_0_energy">   -166.08499918 </i>
   </energy>
  </scstep>
  <scstep>
   <time name="dav">    6.55    5.59</time>
   <time name="total">    6.91    5.96</time>
   <energy>
    <i name="e_fr_energy">   -166.07321167 </i>
    <i name="e_wo_entrp">   -166.07102356 </i>
    <i name="e_0_energy">   -166.07211762 </i>
   </energy>
  </scstep>
  <scstep>
   <time name="dav">    5.72    5.93</time>
   <time name="total">    6.07    6.30</time>
   <energy>
    <i name="e_fr_energy">   -166.05461891 </i>
    <i name="e_wo_entrp">   -166.05242975 </i>
    <i name="e_0_energy">   -166.05352433 </i>
   </energy>
  </scstep>
  <scstep>
   <time name="dav">    5.68    5.90</time>
   <time name="total">    6.03    6.26</time>
   <energy>
    <i name="e_fr_energy">   -166.05790972 </i>
    <i name="e_wo_entrp">   -166.05572191 </i>
    <i name="e_0_energy">   -166.05681581 </i>
   </energy>
  </scstep>
  <scstep>
   <time name="dav">    5.75    5.97</time>
   <time name="total">    6.11    6.34</time>
   <energy>
    <i name="e_fr_energy">   -166.06261433 </i>
    <i name="e_wo_entrp">   -166.06042621 </i>
    <i name="e_0_energy">   -166.06152027 </i>
   </energy>
  </scstep>
  <scstep>
   <time name="dav">    5.67    5.89</time>
   <time name="total">    6.02    6.25</time>
   <energy>
    <i name="e_fr_energy">   -166.06678532 </i>
    <i name="e_wo_entrp">   -166.06459673 </i>
    <i name="e_0_energy">   -166.06569102 </i>
   </energy>
  </scstep>
  <scstep>
   <time name="dav">    5.50    4.52</time>
   <time name="total">    5.85    4.88</time>
   <energy>
    <i name="e_fr_energy">   -166.07068573 </i>
    <i name="e_wo_entrp">   -166.06849731 </i>
    <i name="e_0_energy">   -166.06959152 </i>
   </energy>
  </scstep>
  <scstep>
   <time name="dav">    5.74    5.95</time>
   <time name="total">    6.09    6.32</time>
   <energy>
    <i name="e_fr_energy">   -166.07201373 </i>
    <i name="e_wo_entrp">   -166.06982529 </i>
    <i name="e_0_energy">   -166.07091951 </i>
   </energy>
  </scstep>
  <scstep>
   <time name="dav">    5.88    6.11</time>
   <time name="total">    6.23    6.47</time>
   <energy>
    <i name="e_fr_energy">   -166.07216078 </i>
    <i name="e_wo_entrp">   -166.06997234 </i>
    <i name="e_0_energy">   -166.07106656 </i>
   </energy>
  </scstep>
  <scstep>
   <time name="dav">    5.60    5.83</time>
   <time name="total">    5.95    6.20</time>
   <energy>
    <i name="e_fr_energy">   -166.07236927 </i>
    <i name="e_wo_entrp">   -166.07018091 </i>
    <i name="e_0_energy">   -166.07127509 </i>
   </energy>
  </scstep>
  <scstep>
   <time name="dav">    4.97    5.16</time>
   <time name="total">    5.31    5.52</time>
   <energy>
    <i name="e_fr_energy">   -166.07241756 </i>
    <i name="e_wo_entrp">   -166.07022913 </i>
    <i name="e_0_energy">   -166.07132334 </i>
   </energy>
  </scstep>
  <scstep>
   <time name="dav">    4.91    3.89</time>
   <time name="total">    5.26    4.26</time>
   <energy>
    <i name="e_fr_energy">   -166.07245209 </i>
    <i name="e_wo_entrp">   -166.07026365 </i>
    <i name="e_0_energy">   -166.07135787 </i>
   </energy>
  </scstep>
  <scstep>
   <time name="dav">    4.75    4.91</time>
   <time name="total">    5.11    5.29</time>
   <energy>
    <i name="e_fr_energy">   -166.07247791 </i>
    <i name="e_wo_entrp">   -166.07028952 </i>
    <i name="e_0_energy">   -166.07138372 </i>
   </energy>
  </scstep>
  <scstep>
   <time name="dav">    3.87    4.02</time>
   <time name="total">    4.23    4.39</time>
   <energy>
    <i name="e_fr_energy">   -166.07248644 </i>
    <i name="e_wo_entrp">   -166.07029801 </i>
    <i name="e_0_energy">   -166.07139223 </i>
   </energy>
  </scstep>
  <scstep>
   <time name="dav">    3.83    3.99</time>
   <time name="total">    4.17    4.35</time>
   <energy>
    <i name="e_fr_energy">   -166.07248962 </i>
    <i name="e_wo_entrp">   -166.07030120 </i>
    <i name="e_0_energy">   -166.07139541 </i>
   </energy>
  </scstep>
  <scstep>
   <time name="dav">    3.95    4.11</time>
   <time name="total">    4.03    4.20</time>
   <energy>
    <i name="alphaZ">     28.04858418 </i>
    <i name="ewald">  11638.86651017 </i>
    <i name="hartreedc"> -13861.51613429 </i>
    <i name="XCdc">    247.81411001 </i>
    <i name="pawpsdc">   7452.86490859 </i>
    <i name="pawaedc">  -7465.12829124 </i>
    <i name="eentropy">     -0.00218842 </i>
    <i name="bandstr">   -855.72516860 </i>
    <i name="atom">   2648.70517965 </i>
    <i name="e_fr_energy">   -166.07248995 </i>
    <i name="e_wo_entrp">   -166.07030153 </i>
    <i name="e_0_energy">   -166.07139574 </i>
   </energy>
  </scstep>
  <structure>
   <crystal>
    <varray name="basis" >
     <v>       7.40170591       0.00000000       0.00000000 </v>
     <v>      -3.70085295       6.41006527       0.00000000 </v>
     <v>       0.00000000       0.00000000      20.00000000 </v>
    </varray>
    <i name="volume">    948.90835877 </i>
    <varray name="rec_basis" >
     <v>       0.13510399       0.07800233       0.00000000 </v>
     <v>       0.00000000       0.15600465       0.00000000 </v>
     <v>       0.00000000       0.00000000       0.05000000 </v>
    </varray>
   </crystal>
   <varray name="positions" >
    <v>       0.99921998       0.99843995       0.50000000 </v>
    <v>       0.33333333       0.00000000       0.50000000 </v>
    <v>       0.66666667       0.00000000       0.50000000 </v>
    <v>       0.00000000       0.33333333       0.50000000 </v>
    <v>       0.33333333       0.33333333       0.50000000 </v>
    <v>       0.66666667       0.33333333       0.50000000 </v>
    <v>       0.00000000       0.66666667       0.50000000 </v>
    <v>       0.33333333       0.66666667       0.50000000 </v>
    <v>       0.66666667       0.66666667       0.50000000 </v>
    <v>       0.22087118       0.11111111       0.50000000 </v>
    <v>       0.55555556       0.11111111       0.50000000 </v>
    <v>       0.88888889       0.11111111       0.50000000 </v>
    <v>       0.22222222       0.44444444       0.50000000 </v>
    <v>       0.55555556       0.44444444       0.50000000 </v>
    <v>       0.88888889       0.44444444       0.50000000 </v>
    <v>       0.22222222       0.77777778       0.50000000 </v>
    <v>       0.55555556       0.77777778       0.50000000 </v>
    <v>       0.88888889       0.77777778       0.50000000 </v>
   </varray>
  </structure>
  <varray name="forces" >
   <v>      -0.20088450       0.55075947      -0.00000000 </v>
   <v>      -0.21071068       0.07530972      -0.00000000 </v>
   <v>       0.01450375       0.02409000       0.00000000 </v>
   <v>       0.03670857      -0.05414360      -0.00000000 </v>
   <v>      -0.12622521      -0.03228730      -0.00000000 </v>
   <v>       0.01809822      -0.00772959      -0.00000000 </v>
   <v>       0.02458097      -0.03202096       0.00000000 </v>
   <v>       0.01881360      -0.02032957      -0.00000000 </v>
   <v>      -0.02692437      -0.04222653      -0.00000000 </v>
   <v>       0.53911183      -0.13331404       0.00000000 </v>
   <v>      -0.04996043       0.01169643       0.00000000 </v>
   <v>       0.00223051      -0.12550833      -0.00000000 </v>
   <v>       0.00524410       0.05068744      -0.00000000 </v>
   <v>      -0.00486547      -0.01161438      -0.00000000 </v>
   <v>      -0.02001907       0.00713882      -0.00000000 </v>
   <v>      -0.01765028       0.03707551      -0.00000000 </v>
   <v>      -0.00740068      -0.00821520      -0.00000000 </v>
   <v>       0.00534916      -0.28936790      -0.00000000 </v>
  </varray>
  <varray name="stress" >
   <v>      -0.21981643       0.05933052       0.00000000 </v>
   <v>       0.05933053      -0.07774771       0.00000000 </v>
   <v>       0.00000000       0.00000000      -0.56311685 </v>
  </varray>
  <energy>
   <i name="e_fr_energy">   -166.07248995 </i>
   <i name="e_wo_entrp">   -166.07030153 </i>
   <i name="e_0_energy">   -166.07139574 </i>
  </energy>
  <time name="totalsc">  141.29  141.94</time>
  <eigenvalues>
   <array>
    <dimension dim="1">band</dimension>
    <dimension dim="2">kpoint</dimension>
    <dimension dim="3">spin</dimension>
    <field>eigene</field>
    <field>occ</field>
    <set>
     <set comment="spin 1">
      <set comment="kpoint 1">
       <r>  -22.2560    1.0000 </r>
       <r>  -19.7027    1.0000 </r>
       <r>  -19.6752    1.0000 </r>
       <r>  -19.6733    1.0000 </r>
       <r>  -19.6719    1.0000 </r>
       <r>  -19.6678    1.0000 </r>
       <r>  -19.6496    1.0000 </r>
       <r>  -15.3579    1.0000 </r>
       <r>  -15.3455    1.0000 </r>
       <r>  -15.3361    1.0000 </r>
       <r>  -15.3238    1.0000 </r>
       <r>  -13.2911    1.0000 </r>
       <r>  -13.2888    1.0000 </r>
       <r>  -12.4008    1.0000 </r>
       <r>  -12.3928    1.0000 </r>
       <r>  -12.3780    1.0000 </r>
       <r>  -12.3674    1.0000 </r>
       <r>  -12.3571    1.0000 </r>
       <r>  -12.3514    1.0000 </r>
       <r>  -10.3600    1.0000 </r>
       <r>   -8.5638    1.0000 </r>
       <r>   -8.5314    1.0000 </r>
       <r>   -8.5245    1.0000 </r>
       <r>   -8.5222    1.0000 </r>
       <r>   -8.5105    1.0000 </r>
       <r>   -8.4884    1.0000 </r>
       <r>   -7.3964    1.0000 </r>
       <r>   -7.3723    1.0000 </r>
       <r>   -7.3717    1.0000 </r>
       <r>   -7.3700    1.0000 </r>
       <r>   -7.3638    1.0000 </r>
       <r>   -7.3513    1.0000 </r>
       <r>   -5.8073    1.0000 </r>
       <r>   -5.7608    1.0000 </r>
       <r>   -2.7701    0.6630 </r>
       <r>   -2.7614    0.5686 </r>
       <r>   -2.7491    0.4309 </r>
       <r>   -2.7404    0.3375 </r>
       <r>    0.5196    0.0000 </r>
       <r>    1.3119    0.0000 </r>
       <r>    1.6354    0.0000 </r>
       <r>    2.1184    0.0000 </r>
       <r>    2.1367    0.0000 </r>
       <r>    2.1450    0.0000 </r>
       <r>    2.1488    0.0000 </r>
       <r>    2.1769    0.0000 </r>
      </set>
      <set comment="kpoint 2">
       <r>  -22.2024    1.0000 </r>
       <r>  -20.3493    1.0000 </r>
       <r>  -19.9875    1.0000 </r>
       <r>  -19.9812    1.0000 </r>
       <r>  -19.2652    1.0000 </r>
       <r>  -19.2595    1.0000 </r>
       <r>  -18.9060    1.0000 </r>
       <r>  -16.0003    1.0000 </r>
       <r>  -15.9908    1.0000 </r>
       <r>  -14.9227    1.0000 </r>
       <r>  -14.9032    1.0000 </r>
       <r>  -13.6000    1.0000 </r>
       <r>  -12.9809    1.0000 </r>
       <r>  -12.9650    1.0000 </r>
       <r>  -12.9593    1.0000 </r>
       <r>  -12.9462    1.0000 </r>
       <r>  -11.7415    1.0000 </r>
       <r>  -11.7263    1.0000 </r>
       <r>  -11.1197    1.0000 </r>
       <r>  -10.2960    1.0000 </r>
       <r>   -8.8780    1.0000 </r>
       <r>   -8.8567    1.0000 </r>
       <r>   -8.8228    1.0000 </r>
       <r>   -8.5208    1.0000 </r>
       <r>   -8.5010    1.0000 </r>
       <r>   -8.1273    1.0000 </r>
       <r>   -8.1268    1.0000 </r>
       <r>   -7.7171    1.0000 </r>
       <r>   -7.7108    1.0000 </r>
       <r>   -6.9269    1.0000 </r>
       <r>   -6.9191    1.0000 </r>
       <r>   -6.5557    1.0000 </r>
       <r>   -6.0141    1.0000 </r>
       <r>   -5.8898    1.0000 </r>
       <r>   -3.5356    1.0000 </r>
       <r>   -3.5178    1.0000 </r>
       <r>   -2.0155    0.0000 </r>
       <r>   -1.9935    0.0000 </r>
       <r>    0.5923    0.0000 </r>
       <r>    0.8720    0.0000 </r>
       <r>    1.3855    0.0000 </r>
       <r>    1.4656    0.0000 </r>
       <r>    1.4839    0.0000 </r>
       <r>    1.7099    0.0000 </r>
       <r>    2.6300    0.0000 </r>
       <r>    2.7565    0.0000 </r>
      </set>
      <set comment="kpoint 3">
       <r>  -22.2025    1.0000 </r>
       <r>  -20.3495    1.0000 </r>
       <r>  -19.9930    1.0000 </r>
       <r>  -19.9753    1.0000 </r>
       <r>  -19.2717    1.0000 </r>
       <r>  -19.2532    1.0000 </r>
       <r>  -18.9061    1.0000 </r>
       <r>  -16.0068    1.0000 </r>
       <r>  -15.9847    1.0000 </r>
       <r>  -14.9210    1.0000 </r>
       <r>  -14.9039    1.0000 </r>
       <r>  -13.6035    1.0000 </r>
       <r>  -12.9776    1.0000 </r>
       <r>  -12.9698    1.0000 </r>
       <r>  -12.9563    1.0000 </r>
       <r>  -12.9453    1.0000 </r>
       <r>  -11.7372    1.0000 </r>
       <r>  -11.7255    1.0000 </r>
       <r>  -11.1243    1.0000 </r>
       <r>  -10.2960    1.0000 </r>
       <r>   -8.8805    1.0000 </r>
       <r>   -8.8573    1.0000 </r>
       <r>   -8.8194    1.0000 </r>
       <r>   -8.5235    1.0000 </r>
       <r>   -8.5043    1.0000 </r>
       <r>   -8.1260    1.0000 </r>
       <r>   -8.1218    1.0000 </r>
       <r>   -7.7229    1.0000 </r>
       <r>   -7.7062    1.0000 </r>
       <r>   -6.9319    1.0000 </r>
       <r>   -6.9155    1.0000 </r>
       <r>   -6.5537    1.0000 </r>
       <r>   -6.0219    1.0000 </r>
       <r>   -5.8819    1.0000 </r>
       <r>   -3.5346    1.0000 </r>
       <r>   -3.5193    1.0000 </r>
       <r>   -2.0123    0.0000 </r>
       <r>   -1.9962    0.0000 </r>
       <r>    0.5923    0.0000 </r>
       <r>    0.8672    0.0000 </r>
       <r>    1.3855    0.0000 </r>
       <r>    1.4656    0.0000 </r>
       <r>    1.4870    0.0000 </r>
       <r>    1.7099    0.0000 </r>
       <r>    2.6300    0.0000 </r>
       <r>    2.7534    0.0000 </r>
      </set>
      <set comment="kpoint 4">
       <r>  -22.2024    1.0000 </r>
       <r>  -20.3491    1.0000 </r>
       <r>  -19.9912    1.0000 </r>
       <r>  -19.9778    1.0000 </r>
       <r>  -19.2695    1.0000 </r>
       <r>  -19.2558    1.0000 </r>
       <r>  -18.9056    1.0000 </r>
       <r>  -16.0028    1.0000 </r>
       <r>  -15.9869    1.0000 </r>
       <r>  -14.9190    1.0000 </r>
       <r>  -14.9099    1.0000 </r>
       <r>  -13.5905    1.0000 </r>
       <r>  -12.9815    1.0000 </r>
       <r>  -12.9765    1.0000 </r>
       <r>  -12.9533    1.0000 </r>
       <r>  -12.9474    1.0000 </r>
       <r>  -11.7434    1.0000 </r>
       <r>  -11.7374    1.0000 </r>
       <r>  -11.1078    1.0000 </r>
       <r>  -10.2960    1.0000 </r>
       <r>   -8.8690    1.0000 </r>
       <r>   -8.8526    1.0000 </r>
       <r>   -8.8375    1.0000 </r>
       <r>   -8.5084    1.0000 </r>
       <r>   -8.4951    1.0000 </r>
       <r>   -8.1437    1.0000 </r>
       <r>   -8.1290    1.0000 </r>
       <r>   -7.7183    1.0000 </r>
       <r>   -7.7060    1.0000 </r>
       <r>   -6.9274    1.0000 </r>
       <r>   -6.9156    1.0000 </r>
       <r>   -6.5611    1.0000 </r>
       <r>   -5.9833    1.0000 </r>
       <r>   -5.9210    1.0000 </r>
       <r>   -3.5301    1.0000 </r>
       <r>   -3.5224    1.0000 </r>
       <r>   -2.0080    0.0000 </r>
       <r>   -2.0020    0.0000 </r>
       <r>    0.5922    0.0000 </r>
       <r>    0.8854    0.0000 </r>
       <r>    1.3855    0.0000 </r>
       <r>    1.4634    0.0000 </r>
       <r>    1.4775    0.0000 </r>
       <r>    1.7099    0.0000 </r>
       <r>    2.6300    0.0000 </r>
       <r>    2.7482    0.0000 </r>
      </set>
      <set comment="kpoint 5">
       <r>  -22.0420    1.0000 </r>
       <r>  -20.9268    1.0000 </r>
       <r>  -20.1958    1.0000 </r>
       <r>  -20.1897    1.0000 </r>
       <r>  -18.7583    1.0000 </r>
       <r>  -18.7524    1.0000 </r>
       <r>  -18.0628    1.0000 </r>
       <r>  -16.7487    1.0000 </r>
       <r>  -16.7420    1.0000 </r>
       <r>  -14.7559    1.0000 </r>
       <r>  -14.6328    1.0000 </r>
       <r>  -14.6145    1.0000 </r>
       <r>  -13.5057    1.0000 </r>
       <r>  -13.4913    1.0000 </r>
       <r>  -12.1929    1.0000 </r>
       <r>  -12.1760    1.0000 </r>
       <r>  -11.1034    1.0000 </r>
       <r>  -11.0889    1.0000 </r>
       <r>  -10.1047    1.0000 </r>
       <r>   -9.8633    1.0000 </r>
       <r>   -9.5063    1.0000 </r>
       <r>   -9.4864    1.0000 </r>
       <r>   -9.0353    1.0000 </r>
       <r>   -8.7915    1.0000 </r>
       <r>   -8.7721    1.0000 </r>
       <r>   -8.7546    1.0000 </r>
       <r>   -7.9480    1.0000 </r>
       <r>   -7.9423    1.0000 </r>
       <r>   -7.6672    1.0000 </r>
       <r>   -6.6281    1.0000 </r>
       <r>   -6.3825    1.0000 </r>
       <r>   -6.3732    1.0000 </r>
       <r>   -6.2099    1.0000 </r>
       <r>   -5.7630    1.0000 </r>
       <r>   -4.3067    1.0000 </r>
       <r>   -4.2915    1.0000 </r>
       <r>   -1.2940    0.0000 </r>
       <r>   -1.2711    0.0000 </r>
       <r>   -0.2415    0.0000 </r>
       <r>    0.7784    0.0000 </r>
       <r>    0.7989    0.0000 </r>
       <r>    0.8102    0.0000 </r>
       <r>    1.6063    0.0000 </r>
       <r>    1.9333    0.0000 </r>
       <r>    2.3341    0.0000 </r>
       <r>    2.8513    0.0000 </r>
      </set>
      <set comment="kpoint 6">
       <r>  -22.0420    1.0000 </r>
       <r>  -20.9269    1.0000 </r>
       <r>  -20.2013    1.0000 </r>
       <r>  -20.1838    1.0000 </r>
       <r>  -18.7650    1.0000 </r>
       <r>  -18.7459    1.0000 </r>
       <r>  -18.0627    1.0000 </r>
       <r>  -16.7562    1.0000 </r>
       <r>  -16.7349    1.0000 </r>
       <r>  -14.7588    1.0000 </r>
       <r>  -14.6298    1.0000 </r>
       <r>  -14.6161    1.0000 </r>
       <r>  -13.5025    1.0000 </r>
       <r>  -13.4919    1.0000 </r>
       <r>  -12.1937    1.0000 </r>
       <r>  -12.1766    1.0000 </r>
       <r>  -11.0981    1.0000 </r>
       <r>  -11.0868    1.0000 </r>
       <r>  -10.1046    1.0000 </r>
       <r>   -9.8692    1.0000 </r>
       <r>   -9.5097    1.0000 </r>
       <r>   -9.4864    1.0000 </r>
       <r>   -9.0307    1.0000 </r>
       <r>   -8.7910    1.0000 </r>
       <r>   -8.7761    1.0000 </r>
       <r>   -8.7587    1.0000 </r>
       <r>   -7.9542    1.0000 </r>
       <r>   -7.9374    1.0000 </r>
       <r>   -7.6609    1.0000 </r>
       <r>   -6.6364    1.0000 </r>
       <r>   -6.3865    1.0000 </r>
       <r>   -6.3703    1.0000 </r>
       <r>   -6.2012    1.0000 </r>
       <r>   -5.7598    1.0000 </r>
       <r>   -4.3071    1.0000 </r>
       <r>   -4.2918    1.0000 </r>
       <r>   -1.2906    0.0000 </r>
       <r>   -1.2735    0.0000 </r>
       <r>   -0.2477    0.0000 </r>
       <r>    0.7796    0.0000 </r>
       <r>    0.8002    0.0000 </r>
       <r>    0.8102    0.0000 </r>
       <r>    1.6063    0.0000 </r>
       <r>    1.9333    0.0000 </r>
       <r>    2.3341    0.0000 </r>
       <r>    2.8513    0.0000 </r>
      </set>
      <set comment="kpoint 7">
       <r>  -22.0419    1.0000 </r>
       <r>  -20.9266    1.0000 </r>
       <r>  -20.1996    1.0000 </r>
       <r>  -20.1865    1.0000 </r>
       <r>  -18.7624    1.0000 </r>
       <r>  -18.7484    1.0000 </r>
       <r>  -18.0632    1.0000 </r>
       <r>  -16.7525    1.0000 </r>
       <r>  -16.7368    1.0000 </r>
       <r>  -14.7466    1.0000 </r>
       <r>  -14.6294    1.0000 </r>
       <r>  -14.6227    1.0000 </r>
       <r>  -13.5052    1.0000 </r>
       <r>  -13.4998    1.0000 </r>
       <r>  -12.1871    1.0000 </r>
       <r>  -12.1773    1.0000 </r>
       <r>  -11.1089    1.0000 </r>
       <r>  -11.1025    1.0000 </r>
       <r>  -10.1049    1.0000 </r>
       <r>   -9.8492    1.0000 </r>
       <r>   -9.4984    1.0000 </r>
       <r>   -9.4837    1.0000 </r>
       <r>   -9.0488    1.0000 </r>
       <r>   -8.7929    1.0000 </r>
       <r>   -8.7567    1.0000 </r>
       <r>   -8.7458    1.0000 </r>
       <r>   -7.9495    1.0000 </r>
       <r>   -7.9371    1.0000 </r>
       <r>   -7.6852    1.0000 </r>
       <r>   -6.6028    1.0000 </r>
       <r>   -6.3821    1.0000 </r>
       <r>   -6.3707    1.0000 </r>
       <r>   -6.2362    1.0000 </r>
       <r>   -5.7718    1.0000 </r>
       <r>   -4.3027    1.0000 </r>
       <r>   -4.2938    1.0000 </r>
       <r>   -1.2872    0.0000 </r>
       <r>   -1.2804    0.0000 </r>
       <r>   -0.2244    0.0000 </r>
       <r>    0.7790    0.0000 </r>
       <r>    0.7913    0.0000 </r>
       <r>    0.8102    0.0000 </r>
       <r>    1.6063    0.0000 </r>
       <r>    1.9333    0.0000 </r>
       <r>    2.3340    0.0000 </r>
       <r>    2.8514    0.0000 </r>
      </set>
      <set comment="kpoint 8">
       <r>  -21.7752    1.0000 </r>
       <r>  -21.4027    1.0000 </r>
       <r>  -20.3003    1.0000 </r>
       <r>  -20.2943    1.0000 </r>
       <r>  -18.1615    1.0000 </r>
       <r>  -18.1552    1.0000 </r>
       <r>  -17.4845    1.0000 </r>
       <r>  -17.4784    1.0000 </r>
       <r>  -17.2279    1.0000 </r>
       <r>  -15.7484    1.0000 </r>
       <r>  -14.3298    1.0000 </r>
       <r>  -14.3140    1.0000 </r>
       <r>  -13.9574    1.0000 </r>
       <r>  -13.9425    1.0000 </r>
       <r>  -11.2686    1.0000 </r>
       <r>  -11.2507    1.0000 </r>
       <r>  -10.5992    1.0000 </r>
       <r>  -10.5899    1.0000 </r>
       <r>  -10.3378    1.0000 </r>
       <r>  -10.3189    1.0000 </r>
       <r>   -9.7878    1.0000 </r>
       <r>   -9.3481    1.0000 </r>
       <r>   -9.1417    1.0000 </r>
       <r>   -9.0983    1.0000 </r>
       <r>   -9.0889    1.0000 </r>
       <r>   -8.6495    1.0000 </r>
       <r>   -8.0643    1.0000 </r>
       <r>   -8.0589    1.0000 </r>
       <r>   -7.5430    1.0000 </r>
       <r>   -7.1640    1.0000 </r>
       <r>   -6.6583    1.0000 </r>
       <r>   -5.7530    1.0000 </r>
       <r>   -5.7418    1.0000 </r>
       <r>   -5.1956    1.0000 </r>
       <r>   -5.0536    1.0000 </r>
       <r>   -5.0409    1.0000 </r>
       <r>   -0.9746    0.0000 </r>
       <r>   -0.5959    0.0000 </r>
       <r>   -0.5730    0.0000 </r>
       <r>    0.0916    0.0000 </r>
       <r>    0.1138    0.0000 </r>
       <r>    1.1735    0.0000 </r>
       <r>    1.6817    0.0000 </r>
       <r>    1.9737    0.0000 </r>
       <r>    2.3057    0.0000 </r>
       <r>    2.4866    0.0000 </r>
      </set>
      <set comment="kpoint 9">
       <r>  -21.7752    1.0000 </r>
       <r>  -21.4029    1.0000 </r>
       <r>  -20.3058    1.0000 </r>
       <r>  -20.2884    1.0000 </r>
       <r>  -18.1684    1.0000 </r>
       <r>  -18.1486    1.0000 </r>
       <r>  -17.4918    1.0000 </r>
       <r>  -17.4714    1.0000 </r>
       <r>  -17.2265    1.0000 </r>
       <r>  -15.7530    1.0000 </r>
       <r>  -14.3264    1.0000 </r>
       <r>  -14.3147    1.0000 </r>
       <r>  -13.9544    1.0000 </r>
       <r>  -13.9435    1.0000 </r>
       <r>  -11.2710    1.0000 </r>
       <r>  -11.2506    1.0000 </r>
       <r>  -10.5925    1.0000 </r>
       <r>  -10.5845    1.0000 </r>
       <r>  -10.3416    1.0000 </r>
       <r>  -10.3187    1.0000 </r>
       <r>   -9.7876    1.0000 </r>
       <r>   -9.3479    1.0000 </r>
       <r>   -9.1401    1.0000 </r>
       <r>   -9.1068    1.0000 </r>
       <r>   -9.0907    1.0000 </r>
       <r>   -8.6554    1.0000 </r>
       <r>   -8.0706    1.0000 </r>
       <r>   -8.0538    1.0000 </r>
       <r>   -7.5502    1.0000 </r>
       <r>   -7.1570    1.0000 </r>
       <r>   -6.6502    1.0000 </r>
       <r>   -5.7559    1.0000 </r>
       <r>   -5.7399    1.0000 </r>
       <r>   -5.1908    1.0000 </r>
       <r>   -5.0555    1.0000 </r>
       <r>   -5.0400    1.0000 </r>
       <r>   -0.9824    0.0000 </r>
       <r>   -0.5927    0.0000 </r>
       <r>   -0.5746    0.0000 </r>
       <r>    0.0938    0.0000 </r>
       <r>    0.1134    0.0000 </r>
       <r>    1.1735    0.0000 </r>
       <r>    1.6817    0.0000 </r>
       <r>    1.9737    0.0000 </r>
       <r>    2.3057    0.0000 </r>
       <r>    2.4867    0.0000 </r>
      </set>
      <set comment="kpoint 10">
       <r>  -21.7750    1.0000 </r>
       <r>  -21.4027    1.0000 </r>
       <r>  -20.3042    1.0000 </r>
       <r>  -20.2911    1.0000 </r>
       <r>  -18.1655    1.0000 </r>
       <r>  -18.1510    1.0000 </r>
       <r>  -17.4887    1.0000 </r>
       <r>  -17.4735    1.0000 </r>
       <r>  -17.2315    1.0000 </r>
       <r>  -15.7358    1.0000 </r>
       <r>  -14.3276    1.0000 </r>
       <r>  -14.3220    1.0000 </r>
       <r>  -13.9562    1.0000 </r>
       <r>  -13.9511    1.0000 </r>
       <r>  -11.2625    1.0000 </r>
       <r>  -11.2503    1.0000 </r>
       <r>  -10.6129    1.0000 </r>
       <r>  -10.6065    1.0000 </r>
       <r>  -10.3311    1.0000 </r>
       <r>  -10.3177    1.0000 </r>
       <r>   -9.7881    1.0000 </r>
       <r>   -9.3490    1.0000 </r>
       <r>   -9.1553    1.0000 </r>
       <r>   -9.0800    1.0000 </r>
       <r>   -9.0722    1.0000 </r>
       <r>   -8.6317    1.0000 </r>
       <r>   -8.0660    1.0000 </r>
       <r>   -8.0535    1.0000 </r>
       <r>   -7.5214    1.0000 </r>
       <r>   -7.1849    1.0000 </r>
       <r>   -6.6810    1.0000 </r>
       <r>   -5.7516    1.0000 </r>
       <r>   -5.7407    1.0000 </r>
       <r>   -5.2085    1.0000 </r>
       <r>   -5.0507    1.0000 </r>
       <r>   -5.0411    1.0000 </r>
       <r>   -0.9539    0.0000 </r>
       <r>   -0.5904    0.0000 </r>
       <r>   -0.5818    0.0000 </r>
       <r>    0.0947    0.0000 </r>
       <r>    0.1052    0.0000 </r>
       <r>    1.1734    0.0000 </r>
       <r>    1.6816    0.0000 </r>
       <r>    1.9736    0.0000 </r>
       <r>    2.3057    0.0000 </r>
       <r>    2.4865    0.0000 </r>
      </set>
      <set comment="kpoint 11">
       <r>  -22.0954    1.0000 </r>
       <r>  -20.6160    1.0000 </r>
       <r>  -20.6064    1.0000 </r>
       <r>  -19.5287    1.0000 </r>
       <r>  -19.5096    1.0000 </r>
       <r>  -18.4600    1.0000 </r>
       <r>  -18.4500    1.0000 </r>
       <r>  -16.7781    1.0000 </r>
       <r>  -16.1682    1.0000 </r>
       <r>  -15.2270    1.0000 </r>
       <r>  -14.2641    1.0000 </r>
       <r>  -14.1742    1.0000 </r>
       <r>  -14.1505    1.0000 </r>
       <r>  -12.5966    1.0000 </r>
       <r>  -12.3035    1.0000 </r>
       <r>  -12.2961    1.0000 </r>
       <r>  -12.2766    1.0000 </r>
       <r>  -10.5056    1.0000 </r>
       <r>  -10.4748    1.0000 </r>
       <r>  -10.1683    1.0000 </r>
       <r>   -9.2041    1.0000 </r>
       <r>   -9.1736    1.0000 </r>
       <r>   -9.1235    1.0000 </r>
       <r>   -9.1100    1.0000 </r>
       <r>   -8.4294    1.0000 </r>
       <r>   -8.4221    1.0000 </r>
       <r>   -8.0837    1.0000 </r>
       <r>   -8.0555    1.0000 </r>
       <r>   -7.2027    1.0000 </r>
       <r>   -7.1840    1.0000 </r>
       <r>   -6.4289    1.0000 </r>
       <r>   -6.1096    1.0000 </r>
       <r>   -6.1036    1.0000 </r>
       <r>   -6.0989    1.0000 </r>
       <r>   -4.2516    1.0000 </r>
       <r>   -3.9097    1.0000 </r>
       <r>   -1.6964    0.0000 </r>
       <r>   -1.2747    0.0000 </r>
       <r>    0.2599    0.0000 </r>
       <r>    0.2726    0.0000 </r>
       <r>    0.7376    0.0000 </r>
       <r>    1.5327    0.0000 </r>
       <r>    1.8588    0.0000 </r>
       <r>    2.0068    0.0000 </r>
       <r>    2.0325    0.0000 </r>
       <r>    2.7776    0.0000 </r>
      </set>
      <set comment="kpoint 12">
       <r>  -22.0954    1.0000 </r>
       <r>  -20.6189    1.0000 </r>
       <r>  -20.6033    1.0000 </r>
       <r>  -19.5248    1.0000 </r>
       <r>  -19.5143    1.0000 </r>
       <r>  -18.4630    1.0000 </r>
       <r>  -18.4468    1.0000 </r>
       <r>  -16.7791    1.0000 </r>
       <r>  -16.1598    1.0000 </r>
       <r>  -15.2441    1.0000 </r>
       <r>  -14.2535    1.0000 </r>
       <r>  -14.1666    1.0000 </r>
       <r>  -14.1480    1.0000 </r>
       <r>  -12.6073    1.0000 </r>
       <r>  -12.3152    1.0000 </r>
       <r>  -12.3078    1.0000 </r>
       <r>  -12.2646    1.0000 </r>
       <r>  -10.4996    1.0000 </r>
       <r>  -10.4715    1.0000 </r>
       <r>  -10.1684    1.0000 </r>
       <r>   -9.1914    1.0000 </r>
       <r>   -9.1604    1.0000 </r>
       <r>   -9.1321    1.0000 </r>
       <r>   -9.1134    1.0000 </r>
       <r>   -8.4323    1.0000 </r>
       <r>   -8.4201    1.0000 </r>
       <r>   -8.0910    1.0000 </r>
       <r>   -8.0603    1.0000 </r>
       <r>   -7.1959    1.0000 </r>
       <r>   -7.1845    1.0000 </r>
       <r>   -6.4037    1.0000 </r>
       <r>   -6.1355    1.0000 </r>
       <r>   -6.1114    1.0000 </r>
       <r>   -6.0990    1.0000 </r>
       <r>   -4.2596    1.0000 </r>
       <r>   -3.8965    1.0000 </r>
       <r>   -1.7142    0.0000 </r>
       <r>   -1.2626    0.0000 </r>
       <r>    0.2649    0.0000 </r>
       <r>    0.2849    0.0000 </r>
       <r>    0.7376    0.0000 </r>
       <r>    1.5327    0.0000 </r>
       <r>    1.8588    0.0000 </r>
       <r>    2.0010    0.0000 </r>
       <r>    2.0185    0.0000 </r>
       <r>    2.7776    0.0000 </r>
      </set>
      <set comment="kpoint 13">
       <r>  -22.0954    1.0000 </r>
       <r>  -20.6176    1.0000 </r>
       <r>  -20.6045    1.0000 </r>
       <r>  -19.5286    1.0000 </r>
       <r>  -19.5107    1.0000 </r>
       <r>  -18.4617    1.0000 </r>
       <r>  -18.4480    1.0000 </r>
       <r>  -16.7792    1.0000 </r>
       <r>  -16.1570    1.0000 </r>
       <r>  -15.2505    1.0000 </r>
       <r>  -14.2499    1.0000 </r>
       <r>  -14.1665    1.0000 </r>
       <r>  -14.1437    1.0000 </r>
       <r>  -12.6118    1.0000 </r>
       <r>  -12.3200    1.0000 </r>
       <r>  -12.3075    1.0000 </r>
       <r>  -12.2641    1.0000 </r>
       <r>  -10.4980    1.0000 </r>
       <r>  -10.4696    1.0000 </r>
       <r>  -10.1685    1.0000 </r>
       <r>   -9.1807    1.0000 </r>
       <r>   -9.1599    1.0000 </r>
       <r>   -9.1359    1.0000 </r>
       <r>   -9.1159    1.0000 </r>
       <r>   -8.4316    1.0000 </r>
       <r>   -8.4211    1.0000 </r>
       <r>   -8.0921    1.0000 </r>
       <r>   -8.0635    1.0000 </r>
       <r>   -7.1972    1.0000 </r>
       <r>   -7.1808    1.0000 </r>
       <r>   -6.3935    1.0000 </r>
       <r>   -6.1461    1.0000 </r>
       <r>   -6.1126    1.0000 </r>
       <r>   -6.1008    1.0000 </r>
       <r>   -4.2623    1.0000 </r>
       <r>   -3.8918    1.0000 </r>
       <r>   -1.7208    0.0000 </r>
       <r>   -1.2582    0.0000 </r>
       <r>    0.2685    0.0000 </r>
       <r>    0.2877    0.0000 </r>
       <r>    0.7375    0.0000 </r>
       <r>    1.5327    0.0000 </r>
       <r>    1.8588    0.0000 </r>
       <r>    1.9952    0.0000 </r>
       <r>    2.0171    0.0000 </r>
       <r>    2.7776    0.0000 </r>
      </set>
      <set comment="kpoint 14">
       <r>  -21.8818    1.0000 </r>
       <r>  -21.1379    1.0000 </r>
       <r>  -20.7688    1.0000 </r>
       <r>  -19.6745    1.0000 </r>
       <r>  -18.9577    1.0000 </r>
       <r>  -17.9166    1.0000 </r>
       <r>  -17.5933    1.0000 </r>
       <r>  -17.5729    1.0000 </r>
       <r>  -16.6748    1.0000 </r>
       <r>  -15.2593    1.0000 </r>
       <r>  -15.2362    1.0000 </r>
       <r>  -14.6405    1.0000 </r>
       <r>  -13.7367    1.0000 </r>
       <r>  -12.8122    1.0000 </r>
       <r>  -11.8890    1.0000 </r>
       <r>  -11.6748    1.0000 </r>
       <r>  -11.3975    1.0000 </r>
       <r>  -10.0519    1.0000 </r>
       <r>   -9.9211    1.0000 </r>
       <r>   -9.9141    1.0000 </r>
       <r>   -9.7032    1.0000 </r>
       <r>   -9.6386    1.0000 </r>
       <r>   -9.2806    1.0000 </r>
       <r>   -9.2625    1.0000 </r>
       <r>   -9.0376    1.0000 </r>
       <r>   -8.6066    1.0000 </r>
       <r>   -8.2543    1.0000 </r>
       <r>   -7.5782    1.0000 </r>
       <r>   -7.3557    1.0000 </r>
       <r>   -7.1571    1.0000 </r>
       <r>   -6.5708    1.0000 </r>
       <r>   -6.5303    1.0000 </r>
       <r>   -5.5760    1.0000 </r>
       <r>   -5.3829    1.0000 </r>
       <r>   -5.0690    1.0000 </r>
       <r>   -4.4427    1.0000 </r>
       <r>   -1.2815    0.0000 </r>
       <r>   -0.6899    0.0000 </r>
       <r>   -0.4353    0.0000 </r>
       <r>   -0.3084    0.0000 </r>
       <r>    1.0283    0.0000 </r>
       <r>    1.2335    0.0000 </r>
       <r>    1.8268    0.0000 </r>
       <r>    2.0446    0.0000 </r>
       <r>    2.1568    0.0000 </r>
       <r>    2.4078    0.0000 </r>
      </set>
      <set comment="kpoint 15">
       <r>  -21.8818    1.0000 </r>
       <r>  -21.1382    1.0000 </r>
       <r>  -20.7685    1.0000 </r>
       <r>  -19.6743    1.0000 </r>
       <r>  -18.9585    1.0000 </r>
       <r>  -17.9173    1.0000 </r>
       <r>  -17.5930    1.0000 </r>
       <r>  -17.5727    1.0000 </r>
       <r>  -16.6700    1.0000 </r>
       <r>  -15.2601    1.0000 </r>
       <r>  -15.2532    1.0000 </r>
       <r>  -14.6274    1.0000 </r>
       <r>  -13.7218    1.0000 </r>
       <r>  -12.8259    1.0000 </r>
       <r>  -11.9051    1.0000 </r>
       <r>  -11.6804    1.0000 </r>
       <r>  -11.3855    1.0000 </r>
       <r>  -10.0354    1.0000 </r>
       <r>   -9.9143    1.0000 </r>
       <r>   -9.9035    1.0000 </r>
       <r>   -9.7207    1.0000 </r>
       <r>   -9.6326    1.0000 </r>
       <r>   -9.2825    1.0000 </r>
       <r>   -9.2675    1.0000 </r>
       <r>   -9.0369    1.0000 </r>
       <r>   -8.6078    1.0000 </r>
       <r>   -8.2735    1.0000 </r>
       <r>   -7.5656    1.0000 </r>
       <r>   -7.3551    1.0000 </r>
       <r>   -7.1457    1.0000 </r>
       <r>   -6.5653    1.0000 </r>
       <r>   -6.5421    1.0000 </r>
       <r>   -5.5880    1.0000 </r>
       <r>   -5.3796    1.0000 </r>
       <r>   -5.0767    1.0000 </r>
       <r>   -4.4290    1.0000 </r>
       <r>   -1.3024    0.0000 </r>
       <r>   -0.6958    0.0000 </r>
       <r>   -0.4205    0.0000 </r>
       <r>   -0.2851    0.0000 </r>
       <r>    1.0282    0.0000 </r>
       <r>    1.2178    0.0000 </r>
       <r>    1.8268    0.0000 </r>
       <r>    2.0447    0.0000 </r>
       <r>    2.1567    0.0000 </r>
       <r>    2.4063    0.0000 </r>
      </set>
      <set comment="kpoint 16">
       <r>  -21.8817    1.0000 </r>
       <r>  -21.1379    1.0000 </r>
       <r>  -20.7689    1.0000 </r>
       <r>  -19.6749    1.0000 </r>
       <r>  -18.9582    1.0000 </r>
       <r>  -17.9167    1.0000 </r>
       <r>  -17.5978    1.0000 </r>
       <r>  -17.5696    1.0000 </r>
       <r>  -16.6686    1.0000 </r>
       <r>  -15.2605    1.0000 </r>
       <r>  -15.2428    1.0000 </r>
       <r>  -14.6364    1.0000 </r>
       <r>  -13.7235    1.0000 </r>
       <r>  -12.8254    1.0000 </r>
       <r>  -11.9035    1.0000 </r>
       <r>  -11.6925    1.0000 </r>
       <r>  -11.3831    1.0000 </r>
       <r>  -10.0352    1.0000 </r>
       <r>   -9.9259    1.0000 </r>
       <r>   -9.9145    1.0000 </r>
       <r>   -9.7096    1.0000 </r>
       <r>   -9.6171    1.0000 </r>
       <r>   -9.2929    1.0000 </r>
       <r>   -9.2519    1.0000 </r>
       <r>   -9.0383    1.0000 </r>
       <r>   -8.6059    1.0000 </r>
       <r>   -8.2485    1.0000 </r>
       <r>   -7.5923    1.0000 </r>
       <r>   -7.3520    1.0000 </r>
       <r>   -7.1241    1.0000 </r>
       <r>   -6.5665    1.0000 </r>
       <r>   -6.5652    1.0000 </r>
       <r>   -5.5809    1.0000 </r>
       <r>   -5.3942    1.0000 </r>
       <r>   -5.0763    1.0000 </r>
       <r>   -4.4267    1.0000 </r>
       <r>   -1.3059    0.0000 </r>
       <r>   -0.6707    0.0000 </r>
       <r>   -0.4197    0.0000 </r>
       <r>   -0.2991    0.0000 </r>
       <r>    1.0282    0.0000 </r>
       <r>    1.2217    0.0000 </r>
       <r>    1.8268    0.0000 </r>
       <r>    2.0446    0.0000 </r>
       <r>    2.1567    0.0000 </r>
       <r>    2.3949    0.0000 </r>
      </set>
      <set comment="kpoint 17">
       <r>  -21.8817    1.0000 </r>
       <r>  -21.1379    1.0000 </r>
       <r>  -20.7690    1.0000 </r>
       <r>  -19.6748    1.0000 </r>
       <r>  -18.9580    1.0000 </r>
       <r>  -17.9166    1.0000 </r>
       <r>  -17.5962    1.0000 </r>
       <r>  -17.5714    1.0000 </r>
       <r>  -16.6701    1.0000 </r>
       <r>  -15.2558    1.0000 </r>
       <r>  -15.2423    1.0000 </r>
       <r>  -14.6401    1.0000 </r>
       <r>  -13.7285    1.0000 </r>
       <r>  -12.8208    1.0000 </r>
       <r>  -11.8978    1.0000 </r>
       <r>  -11.6902    1.0000 </r>
       <r>  -11.3870    1.0000 </r>
       <r>  -10.0415    1.0000 </r>
       <r>   -9.9291    1.0000 </r>
       <r>   -9.9144    1.0000 </r>
       <r>   -9.7045    1.0000 </r>
       <r>   -9.6210    1.0000 </r>
       <r>   -9.2924    1.0000 </r>
       <r>   -9.2502    1.0000 </r>
       <r>   -9.0385    1.0000 </r>
       <r>   -8.6056    1.0000 </r>
       <r>   -8.2445    1.0000 </r>
       <r>   -7.5944    1.0000 </r>
       <r>   -7.3525    1.0000 </r>
       <r>   -7.1299    1.0000 </r>
       <r>   -6.5683    1.0000 </r>
       <r>   -6.5590    1.0000 </r>
       <r>   -5.5774    1.0000 </r>
       <r>   -5.3940    1.0000 </r>
       <r>   -5.0740    1.0000 </r>
       <r>   -4.4314    1.0000 </r>
       <r>   -1.2986    0.0000 </r>
       <r>   -0.6706    0.0000 </r>
       <r>   -0.4250    0.0000 </r>
       <r>   -0.3057    0.0000 </r>
       <r>    1.0282    0.0000 </r>
       <r>    1.2267    0.0000 </r>
       <r>    1.8268    0.0000 </r>
       <r>    2.0446    0.0000 </r>
       <r>    2.1567    0.0000 </r>
       <r>    2.3963    0.0000 </r>
      </set>
      <set comment="kpoint 18">
       <r>  -21.8818    1.0000 </r>
       <r>  -21.1381    1.0000 </r>
       <r>  -20.7687    1.0000 </r>
       <r>  -19.6742    1.0000 </r>
       <r>  -18.9580    1.0000 </r>
       <r>  -17.9167    1.0000 </r>
       <r>  -17.5937    1.0000 </r>
       <r>  -17.5721    1.0000 </r>
       <r>  -16.6747    1.0000 </r>
       <r>  -15.2605    1.0000 </r>
       <r>  -15.2391    1.0000 </r>
       <r>  -14.6371    1.0000 </r>
       <r>  -13.7349    1.0000 </r>
       <r>  -12.8138    1.0000 </r>
       <r>  -11.8908    1.0000 </r>
       <r>  -11.6720    1.0000 </r>
       <r>  -11.3972    1.0000 </r>
       <r>  -10.0499    1.0000 </r>
       <r>   -9.9141    1.0000 </r>
       <r>   -9.9141    1.0000 </r>
       <r>   -9.7091    1.0000 </r>
       <r>   -9.6408    1.0000 </r>
       <r>   -9.2815    1.0000 </r>
       <r>   -9.2636    1.0000 </r>
       <r>   -9.0372    1.0000 </r>
       <r>   -8.6072    1.0000 </r>
       <r>   -8.2619    1.0000 </r>
       <r>   -7.5706    1.0000 </r>
       <r>   -7.3563    1.0000 </r>
       <r>   -7.1611    1.0000 </r>
       <r>   -6.5701    1.0000 </r>
       <r>   -6.5261    1.0000 </r>
       <r>   -5.5788    1.0000 </r>
       <r>   -5.3791    1.0000 </r>
       <r>   -5.0697    1.0000 </r>
       <r>   -4.4420    1.0000 </r>
       <r>   -1.2825    0.0000 </r>
       <r>   -0.6970    0.0000 </r>
       <r>   -0.4332    0.0000 </r>
       <r>   -0.3034    0.0000 </r>
       <r>    1.0283    0.0000 </r>
       <r>    1.2311    0.0000 </r>
       <r>    1.8268    0.0000 </r>
       <r>    2.0447    0.0000 </r>
       <r>    2.1568    0.0000 </r>
       <r>    2.5527    0.0000 </r>
      </set>
      <set comment="kpoint 19">
       <r>  -21.8817    1.0000 </r>
       <r>  -21.1381    1.0000 </r>
       <r>  -20.7686    1.0000 </r>
       <r>  -19.6747    1.0000 </r>
       <r>  -18.9584    1.0000 </r>
       <r>  -17.9173    1.0000 </r>
       <r>  -17.5948    1.0000 </r>
       <r>  -17.5711    1.0000 </r>
       <r>  -16.6685    1.0000 </r>
       <r>  -15.2617    1.0000 </r>
       <r>  -15.2528    1.0000 </r>
       <r>  -14.6271    1.0000 </r>
       <r>  -13.7186    1.0000 </r>
       <r>  -12.8290    1.0000 </r>
       <r>  -11.9086    1.0000 </r>
       <r>  -11.6856    1.0000 </r>
       <r>  -11.3820    1.0000 </r>
       <r>  -10.0309    1.0000 </r>
       <r>   -9.9144    1.0000 </r>
       <r>   -9.9073    1.0000 </r>
       <r>   -9.7212    1.0000 </r>
       <r>   -9.6256    1.0000 </r>
       <r>   -9.2829    1.0000 </r>
       <r>   -9.2672    1.0000 </r>
       <r>   -9.0371    1.0000 </r>
       <r>   -8.6075    1.0000 </r>
       <r>   -8.2701    1.0000 </r>
       <r>   -7.5711    1.0000 </r>
       <r>   -7.3540    1.0000 </r>
       <r>   -7.1360    1.0000 </r>
       <r>   -6.5642    1.0000 </r>
       <r>   -6.5525    1.0000 </r>
       <r>   -5.5887    1.0000 </r>
       <r>   -5.3836    1.0000 </r>
       <r>   -5.0783    1.0000 </r>
       <r>   -4.4249    1.0000 </r>
       <r>   -1.3087    0.0000 </r>
       <r>   -0.6887    0.0000 </r>
       <r>   -0.4176    0.0000 </r>
       <r>   -0.2832    0.0000 </r>
       <r>    1.0282    0.0000 </r>
       <r>    1.2152    0.0000 </r>
       <r>    1.8268    0.0000 </r>
       <r>    2.0447    0.0000 </r>
       <r>    2.1567    0.0000 </r>
       <r>    2.4022    0.0000 </r>
      </set>
      <set comment="kpoint 20">
       <r>  -21.5697    1.0000 </r>
       <r>  -21.5547    1.0000 </r>
       <r>  -20.8214    1.0000 </r>
       <r>  -19.7263    1.0000 </r>
       <r>  -18.3119    1.0000 </r>
       <r>  -18.3003    1.0000 </r>
       <r>  -17.3138    1.0000 </r>
       <r>  -17.3018    1.0000 </r>
       <r>  -16.9855    1.0000 </r>
       <r>  -15.9424    1.0000 </r>
       <r>  -15.0202    1.0000 </r>
       <r>  -14.9971    1.0000 </r>
       <r>  -13.2940    1.0000 </r>
       <r>  -13.2696    1.0000 </r>
       <r>  -11.3554    1.0000 </r>
       <r>  -11.0003    1.0000 </r>
       <r>  -10.9759    1.0000 </r>
       <r>  -10.5102    1.0000 </r>
       <r>  -10.4920    1.0000 </r>
       <r>   -9.9095    1.0000 </r>
       <r>   -9.6310    1.0000 </r>
       <r>   -9.5423    1.0000 </r>
       <r>   -9.5294    1.0000 </r>
       <r>   -9.3327    1.0000 </r>
       <r>   -8.6675    1.0000 </r>
       <r>   -8.4232    1.0000 </r>
       <r>   -8.1401    1.0000 </r>
       <r>   -8.1170    1.0000 </r>
       <r>   -7.4097    1.0000 </r>
       <r>   -7.0653    1.0000 </r>
       <r>   -7.0311    1.0000 </r>
       <r>   -5.8622    1.0000 </r>
       <r>   -5.8492    1.0000 </r>
       <r>   -5.0607    1.0000 </r>
       <r>   -5.0211    1.0000 </r>
       <r>   -5.0045    1.0000 </r>
       <r>   -1.0939    0.0000 </r>
       <r>   -0.8352    0.0000 </r>
       <r>   -0.8085    0.0000 </r>
       <r>    0.4006    0.0000 </r>
       <r>    0.4204    0.0000 </r>
       <r>    1.4633    0.0000 </r>
       <r>    1.4650    0.0000 </r>
       <r>    2.2668    0.0000 </r>
       <r>    2.2675    0.0000 </r>
       <r>    2.6035    0.0000 </r>
      </set>
      <set comment="kpoint 21">
       <r>  -21.5687    1.0000 </r>
       <r>  -21.5558    1.0000 </r>
       <r>  -20.8213    1.0000 </r>
       <r>  -19.7260    1.0000 </r>
       <r>  -18.3158    1.0000 </r>
       <r>  -18.2968    1.0000 </r>
       <r>  -17.3180    1.0000 </r>
       <r>  -17.2982    1.0000 </r>
       <r>  -16.9830    1.0000 </r>
       <r>  -15.9481    1.0000 </r>
       <r>  -15.0156    1.0000 </r>
       <r>  -14.9982    1.0000 </r>
       <r>  -13.2911    1.0000 </r>
       <r>  -13.2721    1.0000 </r>
       <r>  -11.3492    1.0000 </r>
       <r>  -10.9984    1.0000 </r>
       <r>  -10.9791    1.0000 </r>
       <r>  -10.5111    1.0000 </r>
       <r>  -10.4944    1.0000 </r>
       <r>   -9.9157    1.0000 </r>
       <r>   -9.6240    1.0000 </r>
       <r>   -9.5410    1.0000 </r>
       <r>   -9.5304    1.0000 </r>
       <r>   -9.3285    1.0000 </r>
       <r>   -8.6680    1.0000 </r>
       <r>   -8.4314    1.0000 </r>
       <r>   -8.1472    1.0000 </r>
       <r>   -8.1223    1.0000 </r>
       <r>   -7.4105    1.0000 </r>
       <r>   -7.0583    1.0000 </r>
       <r>   -7.0238    1.0000 </r>
       <r>   -5.8640    1.0000 </r>
       <r>   -5.8471    1.0000 </r>
       <r>   -5.0554    1.0000 </r>
       <r>   -5.0235    1.0000 </r>
       <r>   -5.0053    1.0000 </r>
       <r>   -1.1020    0.0000 </r>
       <r>   -0.8305    0.0000 </r>
       <r>   -0.8084    0.0000 </r>
       <r>    0.4002    0.0000 </r>
       <r>    0.4198    0.0000 </r>
       <r>    1.4634    0.0000 </r>
       <r>    1.4649    0.0000 </r>
       <r>    2.2669    0.0000 </r>
       <r>    2.2675    0.0000 </r>
       <r>    2.4947    0.0000 </r>
      </set>
      <set comment="kpoint 22">
       <r>  -21.5666    1.0000 </r>
       <r>  -21.5575    1.0000 </r>
       <r>  -20.8217    1.0000 </r>
       <r>  -19.7266    1.0000 </r>
       <r>  -18.3163    1.0000 </r>
       <r>  -18.2957    1.0000 </r>
       <r>  -17.3177    1.0000 </r>
       <r>  -17.2962    1.0000 </r>
       <r>  -16.9922    1.0000 </r>
       <r>  -15.9268    1.0000 </r>
       <r>  -15.0201    1.0000 </r>
       <r>  -15.0068    1.0000 </r>
       <r>  -13.2888    1.0000 </r>
       <r>  -13.2766    1.0000 </r>
       <r>  -11.3709    1.0000 </r>
       <r>  -10.9921    1.0000 </r>
       <r>  -10.9826    1.0000 </r>
       <r>  -10.4991    1.0000 </r>
       <r>  -10.4931    1.0000 </r>
       <r>   -9.8917    1.0000 </r>
       <r>   -9.6497    1.0000 </r>
       <r>   -9.5405    1.0000 </r>
       <r>   -9.5323    1.0000 </r>
       <r>   -9.3456    1.0000 </r>
       <r>   -8.6662    1.0000 </r>
       <r>   -8.4031    1.0000 </r>
       <r>   -8.1259    1.0000 </r>
       <r>   -8.0931    1.0000 </r>
       <r>   -7.4071    1.0000 </r>
       <r>   -7.0896    1.0000 </r>
       <r>   -7.0482    1.0000 </r>
       <r>   -5.8651    1.0000 </r>
       <r>   -5.8473    1.0000 </r>
       <r>   -5.0744    1.0000 </r>
       <r>   -5.0159    1.0000 </r>
       <r>   -5.0019    1.0000 </r>
       <r>   -1.0724    0.0000 </r>
       <r>   -0.8332    0.0000 </r>
       <r>   -0.8228    0.0000 </r>
       <r>    0.4051    0.0000 </r>
       <r>    0.4184    0.0000 </r>
       <r>    1.4636    0.0000 </r>
       <r>    1.4646    0.0000 </r>
       <r>    2.2668    0.0000 </r>
       <r>    2.2674    0.0000 </r>
       <r>    2.4864    0.0000 </r>
      </set>
      <set comment="kpoint 23">
       <r>  -21.6157    1.0000 </r>
       <r>  -21.2482    1.0000 </r>
       <r>  -21.2391    1.0000 </r>
       <r>  -19.0698    1.0000 </r>
       <r>  -19.0502    1.0000 </r>
       <r>  -18.3559    1.0000 </r>
       <r>  -17.0907    1.0000 </r>
       <r>  -17.0841    1.0000 </r>
       <r>  -16.7173    1.0000 </r>
       <r>  -15.6647    1.0000 </r>
       <r>  -15.6273    1.0000 </r>
       <r>  -15.6105    1.0000 </r>
       <r>  -12.9286    1.0000 </r>
       <r>  -12.2588    1.0000 </r>
       <r>  -12.2523    1.0000 </r>
       <r>  -11.3426    1.0000 </r>
       <r>  -10.5748    1.0000 </r>
       <r>  -10.5629    1.0000 </r>
       <r>  -10.5457    1.0000 </r>
       <r>   -9.8192    1.0000 </r>
       <r>   -9.8101    1.0000 </r>
       <r>   -9.5984    1.0000 </r>
       <r>   -9.1651    1.0000 </r>
       <r>   -9.1573    1.0000 </r>
       <r>   -8.8355    1.0000 </r>
       <r>   -8.8024    1.0000 </r>
       <r>   -7.9009    1.0000 </r>
       <r>   -7.7063    1.0000 </r>
       <r>   -7.6711    1.0000 </r>
       <r>   -7.0621    1.0000 </r>
       <r>   -6.6759    1.0000 </r>
       <r>   -6.6575    1.0000 </r>
       <r>   -5.8898    1.0000 </r>
       <r>   -5.0037    1.0000 </r>
       <r>   -4.9960    1.0000 </r>
       <r>   -4.6834    1.0000 </r>
       <r>   -1.2114    0.0000 </r>
       <r>   -1.0395    0.0000 </r>
       <r>   -1.0272    0.0000 </r>
       <r>    0.5195    0.0000 </r>
       <r>    1.3917    0.0000 </r>
       <r>    1.4778    0.0000 </r>
       <r>    1.4984    0.0000 </r>
       <r>    1.8996    0.0000 </r>
       <r>    1.9006    0.0000 </r>
       <r>    2.1940    0.0000 </r>
      </set>
      <set comment="kpoint 24">
       <r>  -21.6154    1.0000 </r>
       <r>  -21.2513    1.0000 </r>
       <r>  -21.2362    1.0000 </r>
       <r>  -19.0657    1.0000 </r>
       <r>  -19.0549    1.0000 </r>
       <r>  -18.3555    1.0000 </r>
       <r>  -17.0967    1.0000 </r>
       <r>  -17.0824    1.0000 </r>
       <r>  -16.7096    1.0000 </r>
       <r>  -15.6803    1.0000 </r>
       <r>  -15.6225    1.0000 </r>
       <r>  -15.6029    1.0000 </r>
       <r>  -12.9155    1.0000 </r>
       <r>  -12.2739    1.0000 </r>
       <r>  -12.2571    1.0000 </r>
       <r>  -11.3574    1.0000 </r>
       <r>  -10.5659    1.0000 </r>
       <r>  -10.5533    1.0000 </r>
       <r>  -10.5298    1.0000 </r>
       <r>   -9.8295    1.0000 </r>
       <r>   -9.8124    1.0000 </r>
       <r>   -9.5989    1.0000 </r>
       <r>   -9.1673    1.0000 </r>
       <r>   -9.1547    1.0000 </r>
       <r>   -8.8411    1.0000 </r>
       <r>   -8.8042    1.0000 </r>
       <r>   -7.8791    1.0000 </r>
       <r>   -7.7056    1.0000 </r>
       <r>   -7.6633    1.0000 </r>
       <r>   -7.0860    1.0000 </r>
       <r>   -6.6702    1.0000 </r>
       <r>   -6.6585    1.0000 </r>
       <r>   -5.8944    1.0000 </r>
       <r>   -5.0153    1.0000 </r>
       <r>   -4.9979    1.0000 </r>
       <r>   -4.6700    1.0000 </r>
       <r>   -1.2323    0.0000 </r>
       <r>   -1.0361    0.0000 </r>
       <r>   -1.0082    0.0000 </r>
       <r>    0.5306    0.0000 </r>
       <r>    1.3916    0.0000 </r>
       <r>    1.4725    0.0000 </r>
       <r>    1.4896    0.0000 </r>
       <r>    1.8992    0.0000 </r>
       <r>    1.9010    0.0000 </r>
       <r>    2.1939    0.0000 </r>
      </set>
      <set comment="kpoint 25">
       <r>  -21.6154    1.0000 </r>
       <r>  -21.2502    1.0000 </r>
       <r>  -21.2373    1.0000 </r>
       <r>  -19.0695    1.0000 </r>
       <r>  -19.0513    1.0000 </r>
       <r>  -18.3554    1.0000 </r>
       <r>  -17.0973    1.0000 </r>
       <r>  -17.0830    1.0000 </r>
       <r>  -16.7071    1.0000 </r>
       <r>  -15.6867    1.0000 </r>
       <r>  -15.6195    1.0000 </r>
       <r>  -15.6007    1.0000 </r>
       <r>  -12.9104    1.0000 </r>
       <r>  -12.2779    1.0000 </r>
       <r>  -12.2607    1.0000 </r>
       <r>  -11.3628    1.0000 </r>
       <r>  -10.5547    1.0000 </r>
       <r>  -10.5517    1.0000 </r>
       <r>  -10.5299    1.0000 </r>
       <r>   -9.8321    1.0000 </r>
       <r>   -9.8144    1.0000 </r>
       <r>   -9.5991    1.0000 </r>
       <r>   -9.1661    1.0000 </r>
       <r>   -9.1557    1.0000 </r>
       <r>   -8.8409    1.0000 </r>
       <r>   -8.8073    1.0000 </r>
       <r>   -7.8701    1.0000 </r>
       <r>   -7.7017    1.0000 </r>
       <r>   -7.6648    1.0000 </r>
       <r>   -7.0949    1.0000 </r>
       <r>   -6.6717    1.0000 </r>
       <r>   -6.6553    1.0000 </r>
       <r>   -5.8961    1.0000 </r>
       <r>   -5.0171    1.0000 </r>
       <r>   -5.0010    1.0000 </r>
       <r>   -4.6652    1.0000 </r>
       <r>   -1.2398    0.0000 </r>
       <r>   -1.0297    0.0000 </r>
       <r>   -1.0065    0.0000 </r>
       <r>    0.5349    0.0000 </r>
       <r>    1.3916    0.0000 </r>
       <r>    1.4681    0.0000 </r>
       <r>    1.4888    0.0000 </r>
       <r>    1.8994    0.0000 </r>
       <r>    1.9009    0.0000 </r>
       <r>    2.1939    0.0000 </r>
      </set>
     </set>
    </set>
   </array>
  </eigenvalues>
  <separator name="orbital magnetization" >
   <v name="MAGDIPOLOUT">      0.00000000      0.00000000      0.00000000</v>
  </separator>
  <dos>
   <i name="efermi">     -2.75525347 </i>
   <total>
    <array>
     <dimension dim="1">gridpoints</dimension>
     <dimension dim="2">spin</dimension>
     <field>energy</field>
     <field>total</field>
     <field>integrated</field>
     <set>
      <set comment="spin 1">
       <r>   -23.5114     0.0000     0.0000 </r>
       <r>   -23.4193     0.0000     0.0000 </r>
       <r>   -23.3273     0.0000     0.0000 </r>
       <r>   -23.2352     0.0000     0.0000 </r>
       <r>   -23.1431     0.0000     0.0000 </r>
       <r>   -23.0511     0.0000     0.0000 </r>
       <r>   -22.9590     0.0000     0.0000 </r>
       <r>   -22.8670     0.0000     0.0000 </r>
       <r>   -22.7749     0.0000     0.0000 </r>
       <r>   -22.6828     0.0000     0.0000 </r>
       <r>   -22.5908     0.0000     0.0000 </r>
       <r>   -22.4987     0.0000     0.0000 </r>
       <r>   -22.4067     0.0000     0.0000 </r>
       <r>   -22.3146     0.0236     0.0022 </r>
       <r>   -22.2225     1.1018     0.1036 </r>
       <r>   -22.1305     2.3660     0.3214 </r>
       <r>   -22.0384     3.5656     0.6497 </r>
       <r>   -21.9464     1.5378     0.7912 </r>
       <r>   -21.8543     4.0195     1.1613 </r>
       <r>   -21.7622     2.8376     1.4225 </r>
       <r>   -21.6702     1.1180     1.5254 </r>
       <r>   -21.5781     3.8566     1.8805 </r>
       <r>   -21.4861     3.8922     2.2388 </r>
       <r>   -21.3940     1.6564     2.3913 </r>
       <r>   -21.3019     1.3438     2.5150 </r>
       <r>   -21.2099     4.2383     2.9052 </r>
       <r>   -21.1178     4.6178     3.3303 </r>
       <r>   -21.0258     1.5138     3.4696 </r>
       <r>   -20.9337     1.1225     3.5730 </r>
       <r>   -20.8416     2.3743     3.7916 </r>
       <r>   -20.7496     5.5234     4.3000 </r>
       <r>   -20.6575     2.1367     4.4968 </r>
       <r>   -20.5655     4.2584     4.8888 </r>
       <r>   -20.4734     0.5433     4.9388 </r>
       <r>   -20.3813     0.5372     4.9883 </r>
       <r>   -20.2893     5.1556     5.4629 </r>
       <r>   -20.1972     4.6720     5.8930 </r>
       <r>   -20.1052     2.8985     6.1598 </r>
       <r>   -20.0131     1.1655     6.2671 </r>
       <r>   -19.9210     3.9834     6.6338 </r>
       <r>   -19.8290     0.2138     6.6535 </r>
       <r>   -19.7369     1.3553     6.7783 </r>
       <r>   -19.6449     7.5738     7.4755 </r>
       <r>   -19.5528     2.6562     7.7201 </r>
       <r>   -19.4607     4.0899     8.0966 </r>
       <r>   -19.3687     0.2892     8.1232 </r>
       <r>   -19.2766     1.8400     8.2926 </r>
       <r>   -19.1845     3.3927     8.6049 </r>
       <r>   -19.0925     1.0765     8.7040 </r>
       <r>   -19.0004     4.6833     9.1352 </r>
       <r>   -18.9084     5.7921     9.6684 </r>
       <r>   -18.8163     2.0557     9.8577 </r>
       <r>   -18.7242     4.0618    10.2316 </r>
       <r>   -18.6322     1.0296    10.3264 </r>
       <r>   -18.5401     0.0492    10.3309 </r>
       <r>   -18.4481     3.0256    10.6094 </r>
       <r>   -18.3560     4.0044    10.9781 </r>
       <r>   -18.2639     5.5634    11.4903 </r>
       <r>   -18.1719     2.5463    11.7247 </r>
       <r>   -18.0798     4.1963    12.1110 </r>
       <r>   -17.9878     1.9729    12.2926 </r>
       <r>   -17.8957     3.7842    12.6410 </r>
       <r>   -17.8036     1.4576    12.7752 </r>
       <r>   -17.7116     0.0064    12.7758 </r>
       <r>   -17.6195     1.7549    12.9373 </r>
       <r>   -17.5275     8.7065    13.7388 </r>
       <r>   -17.4354     4.9564    14.1951 </r>
       <r>   -17.3433     1.4149    14.3254 </r>
       <r>   -17.2513     4.8149    14.7686 </r>
       <r>   -17.1592     2.3597    14.9859 </r>
       <r>   -17.0672     3.8410    15.3395 </r>
       <r>   -16.9751     3.0829    15.6233 </r>
       <r>   -16.8830     0.9883    15.7143 </r>
       <r>   -16.7910     1.5570    15.8576 </r>
       <r>   -16.6989     8.6995    16.6585 </r>
       <r>   -16.6069     5.5137    17.1661 </r>
       <r>   -16.5148     0.1910    17.1837 </r>
       <r>   -16.4227     0.0000    17.1837 </r>
       <r>   -16.3307     0.0000    17.1837 </r>
       <r>   -16.2386     0.0413    17.1875 </r>
       <r>   -16.1466     1.7255    17.3463 </r>
       <r>   -16.0545     1.1674    17.4538 </r>
       <r>   -15.9624     4.7728    17.8932 </r>
       <r>   -15.8704     2.8531    18.1558 </r>
       <r>   -15.7783     0.5759    18.2089 </r>
       <r>   -15.6863     3.2342    18.5066 </r>
       <r>   -15.5942     5.3052    18.9950 </r>
       <r>   -15.5021     1.5998    19.1423 </r>
       <r>   -15.4101     0.0635    19.1481 </r>
       <r>   -15.3180     1.6511    19.3001 </r>
       <r>   -15.2260     9.9188    20.2133 </r>
       <r>   -15.1339     3.4373    20.5297 </r>
       <r>   -15.0418     1.0223    20.6238 </r>
       <r>   -14.9498     4.8710    21.0723 </r>
       <r>   -14.8577     4.4282    21.4799 </r>
       <r>   -14.7657     1.3133    21.6008 </r>
       <r>   -14.6736     2.8374    21.8620 </r>
       <r>   -14.5815     8.4874    22.6434 </r>
       <r>   -14.4895     0.9914    22.7346 </r>
       <r>   -14.3974     0.0980    22.7437 </r>
       <r>   -14.3054     3.7585    23.0897 </r>
       <r>   -14.2133     4.1736    23.4739 </r>
       <r>   -14.1212     4.4217    23.8810 </r>
       <r>   -14.0292     0.9249    23.9661 </r>
       <r>   -13.9371     3.3783    24.2771 </r>
       <r>   -13.8450     1.8614    24.4485 </r>
       <r>   -13.7530     1.2720    24.5656 </r>
       <r>   -13.6609     3.9858    24.9325 </r>
       <r>   -13.5689     2.3147    25.1456 </r>
       <r>   -13.4768     4.3273    25.5440 </r>
       <r>   -13.3847     1.4195    25.6746 </r>
       <r>   -13.2927     2.4558    25.9007 </r>
       <r>   -13.2006     3.6636    26.2380 </r>
       <r>   -13.1086     0.0755    26.2449 </r>
       <r>   -13.0165     0.8540    26.3236 </r>
       <r>   -12.9244     9.3224    27.1818 </r>
       <r>   -12.8324     5.1084    27.6521 </r>
       <r>   -12.7403     3.2714    27.9532 </r>
       <r>   -12.6483     0.3717    27.9875 </r>
       <r>   -12.5562     2.1236    28.1830 </r>
       <r>   -12.4641     0.2608    28.2070 </r>
       <r>   -12.3721     1.5824    28.3526 </r>
       <r>   -12.2800     7.9332    29.0830 </r>
       <r>   -12.1880     8.7016    29.8841 </r>
       <r>   -12.0959     2.9935    30.1596 </r>
       <r>   -12.0038     0.0492    30.1642 </r>
       <r>   -11.9118     1.9230    30.3412 </r>
       <r>   -11.8197     3.3641    30.6509 </r>
       <r>   -11.7277     3.6915    30.9907 </r>
       <r>   -11.6356     6.4420    31.5838 </r>
       <r>   -11.5435     0.5304    31.6326 </r>
       <r>   -11.4515     0.2395    31.6547 </r>
       <r>   -11.3594     6.4765    32.2509 </r>
       <r>   -11.2674     6.0575    32.8086 </r>
       <r>   -11.1753     3.3608    33.1180 </r>
       <r>   -11.0832     5.5604    33.6299 </r>
       <r>   -10.9912     4.7173    34.0641 </r>
       <r>   -10.8991     2.8106    34.3229 </r>
       <r>   -10.8071     0.0397    34.3265 </r>
       <r>   -10.7150     0.0037    34.3269 </r>
       <r>   -10.6229     1.5518    34.4697 </r>
       <r>   -10.5309    10.9647    35.4791 </r>
       <r>   -10.4388    10.6090    36.4558 </r>
       <r>   -10.3468     2.9002    36.7228 </r>
       <r>   -10.2547     5.9093    37.2668 </r>
       <r>   -10.1626     2.0665    37.4571 </r>
       <r>   -10.0706     4.3226    37.8550 </r>
       <r>    -9.9785     4.9438    38.3101 </r>
       <r>    -9.8865    10.8261    39.3068 </r>
       <r>    -9.7944     9.9852    40.2260 </r>
       <r>    -9.7023     6.2428    40.8007 </r>
       <r>    -9.6103     8.7312    41.6045 </r>
       <r>    -9.5182     8.9013    42.4240 </r>
       <r>    -9.4262     5.4792    42.9284 </r>
       <r>    -9.3341     3.8034    43.2785 </r>
       <r>    -9.2420    10.3862    44.2347 </r>
       <r>    -9.1500    11.9260    45.3326 </r>
       <r>    -9.0579    14.8866    46.7031 </r>
       <r>    -8.9658     6.8377    47.3325 </r>
       <r>    -8.8738     3.1479    47.6223 </r>
       <r>    -8.7817    12.2735    48.7522 </r>
       <r>    -8.6897     6.9236    49.3896 </r>
       <r>    -8.5976     7.4469    50.0752 </r>
       <r>    -8.5055     6.9808    50.7179 </r>
       <r>    -8.4135     8.1418    51.4674 </r>
       <r>    -8.3214     3.3439    51.7752 </r>
       <r>    -8.2294     4.0008    52.1435 </r>
       <r>    -8.1373     5.6203    52.6609 </r>
       <r>    -8.0452    13.6512    53.9177 </r>
       <r>    -7.9532     5.3532    54.4105 </r>
       <r>    -7.8611     4.9455    54.8658 </r>
       <r>    -7.7691     1.2221    54.9783 </r>
       <r>    -7.6770     8.3465    55.7467 </r>
       <r>    -7.5849     7.0531    56.3960 </r>
       <r>    -7.4929     5.1243    56.8677 </r>
       <r>    -7.4008     2.9765    57.1417 </r>
       <r>    -7.3088     7.3311    57.8166 </r>
       <r>    -7.2167     2.3253    58.0307 </r>
       <r>    -7.1246     9.9937    58.9507 </r>
       <r>    -7.0326     7.6567    59.6556 </r>
       <r>    -6.9405     3.6040    59.9874 </r>
       <r>    -6.8485     3.5814    60.3171 </r>
       <r>    -6.7564     0.1520    60.3311 </r>
       <r>    -6.6643     4.3207    60.7288 </r>
       <r>    -6.5723    10.5354    61.6987 </r>
       <r>    -6.4802     8.8269    62.5113 </r>
       <r>    -6.3882     4.1187    62.8905 </r>
       <r>    -6.2961     4.0552    63.2638 </r>
       <r>    -6.2040     1.7446    63.4244 </r>
       <r>    -6.1120     4.9653    63.8816 </r>
       <r>    -6.0199     4.8772    64.3305 </r>
       <r>    -5.9279     2.8197    64.5901 </r>
       <r>    -5.8358     7.9182    65.3191 </r>
       <r>    -5.7437     7.1434    65.9767 </r>
       <r>    -5.6517     3.4659    66.2958 </r>
       <r>    -5.5596     3.7814    66.6439 </r>
       <r>    -5.4676     1.4857    66.7807 </r>
       <r>    -5.3755     3.1900    67.0743 </r>
       <r>    -5.2834     2.0874    67.2665 </r>
       <r>    -5.1914     1.5218    67.4066 </r>
       <r>    -5.0993     3.2705    67.7077 </r>
       <r>    -5.0073    15.5917    69.1431 </r>
       <r>    -4.9152     6.1493    69.7092 </r>
       <r>    -4.8231     0.0556    69.7143 </r>
       <r>    -4.7311     0.1437    69.7275 </r>
       <r>    -4.6390     2.0513    69.9164 </r>
       <r>    -4.5470     0.4687    69.9595 </r>
       <r>    -4.4549     1.4309    70.0912 </r>
       <r>    -4.3628     3.9534    70.4552 </r>
       <r>    -4.2708     5.0515    70.9202 </r>
       <r>    -4.1787     2.8243    71.1802 </r>
       <r>    -4.0866     0.0374    71.1837 </r>
       <r>    -3.9946     0.0113    71.1847 </r>
       <r>    -3.9025     1.2239    71.2974 </r>
       <r>    -3.8105     1.4066    71.4269 </r>
       <r>    -3.7184     0.0184    71.4286 </r>
       <r>    -3.6263     0.0151    71.4300 </r>
       <r>    -3.5343     2.1990    71.6324 </r>
       <r>    -3.4422     3.0552    71.9137 </r>
       <r>    -3.3502     0.0511    71.9184 </r>
       <r>    -3.2581     0.0000    71.9184 </r>
       <r>    -3.1660     0.0000    71.9184 </r>
       <r>    -3.0740     0.0000    71.9184 </r>
       <r>    -2.9819     0.0000    71.9184 </r>
       <r>    -2.8899     0.0002    71.9184 </r>
       <r>    -2.7978     0.2235    71.9390 </r>
       <r>    -2.7057     1.3877    72.0667 </r>
       <r>    -2.6137     0.1619    72.0816 </r>
       <r>    -2.5216     0.0001    72.0816 </r>
       <r>    -2.4296     0.0000    72.0816 </r>
       <r>    -2.3375     0.0000    72.0816 </r>
       <r>    -2.2454     0.0000    72.0816 </r>
       <r>    -2.1534     0.0001    72.0816 </r>
       <r>    -2.0613     0.3128    72.1104 </r>
       <r>    -1.9693     4.1289    72.4905 </r>
       <r>    -1.8772     0.8774    72.5713 </r>
       <r>    -1.7851     0.0568    72.5765 </r>
       <r>    -1.6931     1.7580    72.7384 </r>
       <r>    -1.6010     0.8425    72.8160 </r>
       <r>    -1.5090     0.0040    72.8163 </r>
       <r>    -1.4169     0.0034    72.8166 </r>
       <r>    -1.3248     1.9838    72.9993 </r>
       <r>    -1.2328    11.3414    74.0434 </r>
       <r>    -1.1407     2.8365    74.3045 </r>
       <r>    -1.0487     3.5241    74.6289 </r>
       <r>    -0.9566     5.7741    75.1605 </r>
       <r>    -0.8645     1.8332    75.3292 </r>
       <r>    -0.7725     4.2146    75.7172 </r>
       <r>    -0.6804     3.3852    76.0289 </r>
       <r>    -0.5884     4.7736    76.4683 </r>
       <r>    -0.4963     2.9818    76.7428 </r>
       <r>    -0.4042     3.7513    77.0882 </r>
       <r>    -0.3122     3.3697    77.3984 </r>
       <r>    -0.2201     5.1613    77.8736 </r>
       <r>    -0.1281     0.9263    77.9588 </r>
       <r>    -0.0360     0.0042    77.9592 </r>
       <r>     0.0561     0.5523    78.0101 </r>
       <r>     0.1481     4.2160    78.3982 </r>
       <r>     0.2402     1.5392    78.5399 </r>
       <r>     0.3322     4.1283    78.9199 </r>
       <r>     0.4243     3.6413    79.2552 </r>
       <r>     0.5164     3.1048    79.5410 </r>
       <r>     0.6084     3.6451    79.8766 </r>
       <r>     0.7005     1.3327    79.9993 </r>
       <r>     0.7925     5.8480    80.5376 </r>
       <r>     0.8846     5.9017    81.0809 </r>
       <r>     0.9767     1.4943    81.2185 </r>
       <r>     1.0687     4.2756    81.6121 </r>
       <r>     1.1608     1.8294    81.7805 </r>
       <r>     1.2529     5.6664    82.3022 </r>
       <r>     1.3449     2.0994    82.4955 </r>
       <r>     1.4370     6.9566    83.1359 </r>
       <r>     1.5290    13.9986    84.4246 </r>
       <r>     1.6211     4.5101    84.8398 </r>
       <r>     1.7132     4.6614    85.2689 </r>
       <r>     1.8052     3.3563    85.5779 </r>
       <r>     1.8973     8.8144    86.3894 </r>
       <r>     1.9893     8.9017    87.2089 </r>
       <r>     2.0814     9.1668    88.0528 </r>
       <r>     2.1735     6.8367    88.6822 </r>
       <r>     2.2655     7.0235    89.3287 </r>
       <r>     2.3576     7.3302    90.0036 </r>
       <r>     2.4496     5.0596    90.4694 </r>
       <r>     2.5417     4.3074    90.8659 </r>
       <r>     2.6338     2.9386    91.1364 </r>
       <r>     2.7258     2.1786    91.3370 </r>
       <r>     2.8179     4.5724    91.7579 </r>
       <r>     2.9099     2.4997    91.9880 </r>
       <r>     3.0020     0.1298    92.0000 </r>
       <r>     3.0941     0.0000    92.0000 </r>
       <r>     3.1861     0.0000    92.0000 </r>
       <r>     3.2782     0.0000    92.0000 </r>
       <r>     3.3702     0.0000    92.0000 </r>
       <r>     3.4623     0.0000    92.0000 </r>
       <r>     3.5544     0.0000    92.0000 </r>
       <r>     3.6464     0.0000    92.0000 </r>
       <r>     3.7385     0.0000    92.0000 </r>
       <r>     3.8305     0.0000    92.0000 </r>
       <r>     3.9226     0.0000    92.0000 </r>
       <r>     4.0147     0.0000    92.0000 </r>
       <r>     4.1067     0.0000    92.0000 </r>
      </set>
     </set>
    </array>
   </total>
  </dos>
 </calculation>
 <structure name="finalpos" >
  <crystal>
   <varray name="basis" >
    <v>       7.40170591       0.00000000       0.00000000 </v>
    <v>      -3.70085295       6.41006527       0.00000000 </v>
    <v>       0.00000000       0.00000000      20.00000000 </v>
   </varray>
   <i name="volume">    948.90835877 </i>
   <varray name="rec_basis" >
    <v>       0.13510399       0.07800233       0.00000000 </v>
    <v>       0.00000000       0.15600465       0.00000000 </v>
    <v>       0.00000000       0.00000000       0.05000000 </v>
   </varray>
  </crystal>
  <varray name="positions" >
   <v>       0.99921998       0.99843995       0.50000000 </v>
   <v>       0.33333333       0.00000000       0.50000000 </v>
   <v>       0.66666667       0.00000000       0.50000000 </v>
   <v>       0.00000000       0.33333333       0.50000000 </v>
   <v>       0.33333333       0.33333333       0.50000000 </v>
   <v>       0.66666667       0.33333333       0.50000000 </v>
   <v>       0.00000000       0.66666667       0.50000000 </v>
   <v>       0.33333333       0.66666667       0.50000000 </v>
   <v>       0.66666667       0.66666667       0.50000000 </v>
   <v>       0.22087118       0.11111111       0.50000000 </v>
   <v>       0.55555556       0.11111111       0.50000000 </v>
   <v>       0.88888889       0.11111111       0.50000000 </v>
   <v>       0.22222222       0.44444444       0.50000000 </v>
   <v>       0.55555556       0.44444444       0.50000000 </v>
   <v>       0.88888889       0.44444444       0.50000000 </v>
   <v>       0.22222222       0.77777778       0.50000000 </v>
   <v>       0.55555556       0.77777778       0.50000000 </v>
   <v>       0.88888889       0.77777778       0.50000000 </v>
  </varray>
 </structure>
</modeling>
