<?xml version="1.0" encoding="ISO-8859-1"?>
<modeling>
 <generator>
  <i name="program" type="string">vasp </i>
  <i name="version" type="string">6.4.1  </i>
  <i name="subversion" type="string">05Apr23 (build Feb 12 2025 00:37:39) complex                          parallel </i>
  <i name="platform" type="string">LinuxIFC </i>
  <i name="date" type="string">2025 02 14 </i>
  <i name="time" type="string">04:43:03 </i>
 </generator>
 <incar>
  <i type="string" name="SYSTEM">SCF</i>
  <i type="int" name="ISTART">     0</i>
  <i type="int" name="ICHARG">     2</i>
  <i type="int" name="NELM">    60</i>
  <i type="int" name="NELMIN">     6</i>
  <i name="EDIFF">      0.00000100</i>
  <i name="EDIFFG">     -0.00000100</i>
  <i name="ENCUT">    600.00000000</i>
  <i type="string" name="LREAL">Auto</i>
  <i type="int" name="ISMEAR">     0</i>
  <i name="SIGMA">      0.05000000</i>
  <i type="logical" name="LWAVE"> F  </i>
  <i type="logical" name="LCHARG"> F  </i>
 </incar>
 <primitive_cell>
  <structure name="primitive_cell" >
   <crystal>
    <varray name="basis" >
     <v>       7.40170591       0.00000000       0.00000000 </v>
     <v>      -3.70085295       6.41006527       0.00000000 </v>
     <v>       0.00000000       0.00000000      20.00000000 </v>
    </varray>
    <i name="volume">    948.90835877 </i>
    <varray name="rec_basis" >
     <v>       0.13510399       0.07800233       0.00000000 </v>
     <v>       0.00000000       0.15600465       0.00000000 </v>
     <v>       0.00000000       0.00000000       0.05000000 </v>
    </varray>
   </crystal>
   <varray name="positions" >
    <v>       0.99864896       0.00000000       0.50000000 </v>
    <v>       0.33333333       0.00000000       0.50000000 </v>
    <v>       0.66666667       0.00000000       0.50000000 </v>
    <v>       1.00000000       0.33333333       0.50000000 </v>
    <v>       0.33333333       0.33333333       0.50000000 </v>
    <v>       0.66666667       0.33333333       0.50000000 </v>
    <v>       1.00000000       0.66666667       0.50000000 </v>
    <v>       0.33333333       0.66666667       0.50000000 </v>
    <v>       0.66666667       0.66666667       0.50000000 </v>
    <v>       0.22357326       0.11111111       0.50000000 </v>
    <v>       0.55555556       0.11111111       0.50000000 </v>
    <v>       0.88888889       0.11111111       0.50000000 </v>
    <v>       0.22222222       0.44444444       0.50000000 </v>
    <v>       0.55555556       0.44444444       0.50000000 </v>
    <v>       0.88888889       0.44444444       0.50000000 </v>
    <v>       0.22222222       0.77777778       0.50000000 </v>
    <v>       0.55555556       0.77777778       0.50000000 </v>
    <v>       0.88888889       0.77777778       0.50000000 </v>
   </varray>
  </structure>
  <varray name="primitive_index" >
   <v type="int" >        1 </v>
   <v type="int" >        2 </v>
   <v type="int" >        3 </v>
   <v type="int" >        4 </v>
   <v type="int" >        5 </v>
   <v type="int" >        6 </v>
   <v type="int" >        7 </v>
   <v type="int" >        8 </v>
   <v type="int" >        9 </v>
   <v type="int" >       10 </v>
   <v type="int" >       11 </v>
   <v type="int" >       12 </v>
   <v type="int" >       13 </v>
   <v type="int" >       14 </v>
   <v type="int" >       15 </v>
   <v type="int" >       16 </v>
   <v type="int" >       17 </v>
   <v type="int" >       18 </v>
  </varray>
 </primitive_cell>
 <kpoints>
  <generation param="Gamma">
   <v type="int" name="divisions">       7        7        1 </v>
   <v name="usershift">      0.00000000       0.00000000       0.00000000 </v>
   <v name="genvec1">      0.14285714       0.00000000       0.00000000 </v>
   <v name="genvec2">      0.00000000       0.14285714       0.00000000 </v>
   <v name="genvec3">      0.00000000       0.00000000       1.00000000 </v>
   <v name="shift">      0.00000000       0.00000000       0.00000000 </v>
  </generation>
  <varray name="kpointlist" >
   <v>       0.00000000       0.00000000       0.00000000 </v>
   <v>       0.14285714       0.00000000       0.00000000 </v>
   <v>       0.00000000       0.14285714       0.00000000 </v>
   <v>      -0.14285714       0.14285714       0.00000000 </v>
   <v>       0.28571429       0.00000000       0.00000000 </v>
   <v>       0.00000000       0.28571429       0.00000000 </v>
   <v>      -0.28571429       0.28571429       0.00000000 </v>
   <v>       0.42857143       0.00000000       0.00000000 </v>
   <v>       0.00000000       0.42857143       0.00000000 </v>
   <v>      -0.42857143       0.42857143       0.00000000 </v>
   <v>       0.14285714       0.14285714       0.00000000 </v>
   <v>      -0.14285714       0.28571429       0.00000000 </v>
   <v>      -0.28571429       0.14285714       0.00000000 </v>
   <v>       0.28571429       0.14285714       0.00000000 </v>
   <v>      -0.14285714       0.42857143       0.00000000 </v>
   <v>      -0.42857143       0.28571429       0.00000000 </v>
   <v>      -0.28571429       0.42857143       0.00000000 </v>
   <v>       0.14285714       0.28571429       0.00000000 </v>
   <v>       0.42857143      -0.14285714       0.00000000 </v>
   <v>       0.42857143       0.14285714       0.00000000 </v>
   <v>      -0.14285714      -0.42857143       0.00000000 </v>
   <v>       0.42857143       0.42857143       0.00000000 </v>
   <v>       0.28571429       0.28571429       0.00000000 </v>
   <v>      -0.28571429      -0.42857143       0.00000000 </v>
   <v>       0.42857143       0.28571429       0.00000000 </v>
  </varray>
  <varray name="weights" >
   <v>       0.02040816 </v>
   <v>       0.04081633 </v>
   <v>       0.04081633 </v>
   <v>       0.04081633 </v>
   <v>       0.04081633 </v>
   <v>       0.04081633 </v>
   <v>       0.04081633 </v>
   <v>       0.04081633 </v>
   <v>       0.04081633 </v>
   <v>       0.04081633 </v>
   <v>       0.04081633 </v>
   <v>       0.04081633 </v>
   <v>       0.04081633 </v>
   <v>       0.04081633 </v>
   <v>       0.04081633 </v>
   <v>       0.04081633 </v>
   <v>       0.04081633 </v>
   <v>       0.04081633 </v>
   <v>       0.04081633 </v>
   <v>       0.04081633 </v>
   <v>       0.04081633 </v>
   <v>       0.04081633 </v>
   <v>       0.04081633 </v>
   <v>       0.04081633 </v>
   <v>       0.04081633 </v>
  </varray>
 </kpoints>
 <parameters>
  <separator name="general" >
   <i type="string" name="SYSTEM">SCF</i>
   <i type="logical" name="LCOMPAT"> F  </i>
  </separator>
  <separator name="electronic" >
   <i type="string" name="PREC">normal</i>
   <i name="ENMAX">    600.00000000</i>
   <i name="ENAUG">    644.87300000</i>
   <i name="EDIFF">      0.00000100</i>
   <i type="int" name="IALGO">    38</i>
   <i type="int" name="IWAVPR">    10</i>
   <i type="int" name="NBANDS">    46</i>
   <i type="int" name="NBANDSLOW">    -1</i>
   <i type="int" name="NBANDSHIGH">    -1</i>
   <i name="NELECT">     72.00000000</i>
   <i type="int" name="TURBO">     0</i>
   <i type="int" name="IRESTART">     0</i>
   <i type="int" name="NREBOOT">     0</i>
   <i type="int" name="NMIN">     0</i>
   <i name="EREF">      0.00000000</i>
   <separator name="electronic smearing" >
    <i type="int" name="ISMEAR">     0</i>
    <i name="SIGMA">      0.05000000</i>
    <i name="KSPACING">      0.50000000</i>
    <i type="logical" name="KGAMMA"> T  </i>
    <i type="logical" name="KBLOWUP"> T  </i>
   </separator>
   <separator name="electronic projectors" >
    <i type="logical" name="LREAL"> T  </i>
    <v name="ROPT">     -0.00050000</v>
    <i type="int" name="LMAXPAW">  -100</i>
    <i type="int" name="LMAXMIX">     2</i>
    <i type="logical" name="NLSPLINE"> F  </i>
   </separator>
   <separator name="electronic startup" >
    <i type="int" name="ISTART">     0</i>
    <i type="int" name="ICHARG">     2</i>
    <i type="int" name="INIWAV">     1</i>
   </separator>
   <separator name="electronic spin" >
    <i type="int" name="ISPIN">     1</i>
    <i type="logical" name="LNONCOLLINEAR"> F  </i>
    <v name="MAGMOM">      1.00000000      1.00000000      1.00000000      1.00000000      1.00000000      1.00000000      1.00000000      1.00000000      1.00000000      1.00000000      1.00000000      1.00000000      1.00000000      1.00000000      1.00000000      1.00000000      1.00000000      1.00000000</v>
    <i name="NUPDOWN">     -1.00000000</i>
    <i type="logical" name="LSORBIT"> F  </i>
    <v name="SAXIS">      0.00000000      0.00000000      1.00000000</v>
    <i type="logical" name="LSPIRAL"> F  </i>
    <v name="QSPIRAL">      0.00000000      0.00000000      0.00000000</v>
    <i type="logical" name="LZEROZ"> F  </i>
   </separator>
   <separator name="electronic exchange-correlation" >
    <i type="logical" name="LASPH"> F  </i>
    <i type="logical" name="LMETAGGA"> F  </i>
   </separator>
   <separator name="electronic convergence" >
    <i type="int" name="NELM">    60</i>
    <i type="int" name="NELMDL">    -5</i>
    <i type="int" name="NELMIN">     6</i>
    <i name="ENINI">    600.00000000</i>
    <separator name="electronic convergence detail" >
     <i type="logical" name="LDIAG"> T  </i>
     <i type="logical" name="LSUBROT"> F  </i>
     <i name="WEIMIN">      0.00000000</i>
     <i name="EBREAK">      0.00000000</i>
     <i name="DEPER">      0.30000000</i>
     <i type="int" name="NRMM">     4</i>
     <i name="TIME">      0.40000000</i>
    </separator>
   </separator>
   <separator name="electronic mixer" >
    <i name="AMIX">      0.40000000</i>
    <i name="BMIX">      1.00000000</i>
    <i name="AMIN">      0.10000000</i>
    <i name="AMIX_MAG">      1.60000000</i>
    <i name="BMIX_MAG">      1.00000000</i>
    <separator name="electronic mixer details" >
     <i type="int" name="IMIX">     4</i>
     <i type="logical" name="MIXFIRST"> F  </i>
     <i type="int" name="MAXMIX">   -45</i>
     <i name="WC">    100.00000000</i>
     <i type="int" name="INIMIX">     1</i>
     <i type="int" name="MIXPRE">     1</i>
     <i type="int" name="MREMOVE">     5</i>
    </separator>
   </separator>
   <separator name="electronic dipolcorrection" >
    <i type="logical" name="LDIPOL"> F  </i>
    <i type="logical" name="LMONO"> F  </i>
    <i type="int" name="IDIPOL">     0</i>
    <i name="EPSILON">      1.00000000</i>
    <v name="DIPOL">   -100.00000000   -100.00000000   -100.00000000</v>
    <i name="EFIELD">      0.00000000</i>
   </separator>
  </separator>
  <separator name="grids" >
   <i type="int" name="NGX">    48</i>
   <i type="int" name="NGY">    48</i>
   <i type="int" name="NGZ">   120</i>
   <i type="int" name="NGXF">    96</i>
   <i type="int" name="NGYF">    96</i>
   <i type="int" name="NGZF">   240</i>
   <i type="logical" name="ADDGRID"> F  </i>
  </separator>
  <separator name="ionic" >
   <i type="int" name="NSW">     0</i>
   <i type="int" name="IBRION">    -1</i>
   <i type="int" name="MDALGO">     0</i>
   <i type="int" name="ISIF">     2</i>
   <i name="PSTRESS">      0.00000000</i>
   <i name="EDIFFG">     -0.00000100</i>
   <i type="int" name="NFREE">     0</i>
   <i name="POTIM">      0.50000000</i>
   <i name="SMASS">     -3.00000000</i>
   <i name="SCALEE">      1.00000000</i>
  </separator>
  <separator name="ionic md" >
   <i name="TEBEG">      0.00010000</i>
   <i name="TEEND">      0.00010000</i>
   <i type="int" name="NBLOCK">     1</i>
   <i type="int" name="KBLOCK">     1</i>
   <i type="int" name="NPACO">   256</i>
   <i name="APACO">     10.00000000</i>
  </separator>
  <separator name="symmetry" >
   <i type="int" name="ISYM">     2</i>
   <i name="SYMPREC">      0.00001000</i>
  </separator>
  <separator name="dos" >
   <i type="int" name="LORBIT">     0</i>
   <v name="RWIGS">     -1.00000000</v>
   <i type="int" name="NEDOS">   301</i>
   <i name="EMIN">     10.00000000</i>
   <i name="EMAX">    -10.00000000</i>
   <i name="EFERMI">      0.00000000</i>
  </separator>
  <separator name="writing" >
   <i type="int" name="NWRITE">     2</i>
   <i type="logical" name="LWAVE"> F  </i>
   <i type="logical" name="LDOWNSAMPLE"> F  </i>
   <i type="logical" name="LCHARG"> F  </i>
   <i type="logical" name="LPARD"> F  </i>
   <i type="logical" name="LVTOT"> F  </i>
   <i type="logical" name="LVHAR"> F  </i>
   <i type="logical" name="LELF"> F  </i>
   <i type="logical" name="LOPTICS"> F  </i>
   <v name="STM">      0.00000000      0.00000000      0.00000000      0.00000000      0.00000000      0.00000000      0.00000000</v>
  </separator>
  <separator name="performance" >
   <i type="int" name="NPAR">     2</i>
   <i type="int" name="NSIM">     4</i>
   <i type="int" name="NBLK">    -1</i>
   <i type="logical" name="LPLANE"> T  </i>
   <i type="logical" name="LSCALAPACK"> T  </i>
   <i type="logical" name="LSCAAWARE"> F  </i>
   <i type="logical" name="LSCALU"> F  </i>
   <i type="logical" name="LASYNC"> F  </i>
   <i type="logical" name="LORBITALREAL"> F  </i>
  </separator>
  <separator name="miscellaneous" >
   <i type="int" name="IDIOT">     3</i>
   <i type="int" name="PHON_NSTRUCT">    -1</i>
   <i type="logical" name="LMUSIC"> F  </i>
   <v name="POMASS">     12.01100000</v>
   <v name="DARWINR">      0.00000000</v>
   <v name="DARWINV">      1.00000000</v>
   <i type="logical" name="LCORR"> T  </i>
  </separator>
  <i type="logical" name="GGA_COMPAT"> T  </i>
  <i type="logical" name="LBERRY"> F  </i>
  <i type="int" name="ICORELEVEL">     0</i>
  <i type="logical" name="LDAU"> F  </i>
  <i type="int" name="I_CONSTRAINED_M">     0</i>
  <separator name="electronic exchange-correlation" >
   <i type="string" name="GGA">--</i>
   <i type="int" name="VOSKOWN">     0</i>
   <i type="logical" name="LHFCALC"> F  </i>
   <i type="string" name="PRECFOCK"></i>
   <i type="logical" name="LSYMGRAD"> F  </i>
   <i type="logical" name="LHFONE"> F  </i>
   <i type="logical" name="LRHFCALC"> F  </i>
   <i type="logical" name="LTHOMAS"> F  </i>
   <i type="logical" name="LMODELHF"> F  </i>
   <i type="logical" name="LFOCKACE"> F  </i>
   <i name="ENCUT4O">     -1.00000000</i>
   <i type="int" name="EXXOEP">     0</i>
   <i type="int" name="FOURORBIT">     0</i>
   <i name="AEXX">      0.00000000</i>
   <i name="HFALPHA">      0.00000000</i>
   <i name="MCALPHA">      0.00000000</i>
   <i name="ALDAX">      1.00000000</i>
   <i name="AGGAX">      1.00000000</i>
   <i name="ALDAC">      1.00000000</i>
   <i name="AGGAC">      1.00000000</i>
   <i type="int" name="NKREDX">     1</i>
   <i type="int" name="NKREDY">     1</i>
   <i type="int" name="NKREDZ">     1</i>
   <i type="logical" name="SHIFTRED"> F  </i>
   <i type="logical" name="ODDONLY"> F  </i>
   <i type="logical" name="EVENONLY"> F  </i>
   <i type="int" name="LMAXFOCK">     0</i>
   <i type="int" name="NMAXFOCKAE">     0</i>
   <i type="logical" name="LFOCKAEDFT"> F  </i>
   <i name="HFSCREEN">      0.00000000</i>
   <i name="HFSCREENC">      0.00000000</i>
   <i type="int" name="NBANDSGWLOW">     0</i>
  </separator>
  <separator name="vdW DFT" >
   <i type="logical" name="LUSE_VDW"> F  </i>
   <i type="int" name="IVDW_NL">     1</i>
   <i type="logical" name="LSPIN_VDW"> F  </i>
   <i name="Zab_VDW">     -0.84910000</i>
   <i name="PARAM1">      0.12340000</i>
   <i name="PARAM2">      1.00000000</i>
   <i name="PARAM3">      0.00000000</i>
  </separator>
  <separator name="model GW" >
   <i type="int" name="MODEL_GW">     0</i>
   <i name="MODEL_EPS0">     31.63027863</i>
   <i name="MODEL_ALPHA">      1.00000000</i>
  </separator>
  <separator name="linear response parameters" >
   <i type="logical" name="LEPSILON"> F  </i>
   <i type="logical" name="LRPA"> F  </i>
   <i type="logical" name="LNABLA"> F  </i>
   <i type="logical" name="LVEL"> F  </i>
   <i name="CSHIFT">      0.10000000</i>
   <i name="OMEGAMAX">     -1.00000000</i>
   <i name="DEG_THRESHOLD">      0.00200000</i>
   <i name="RTIME">     -0.10000000</i>
   <i name="WPLASMAI">      0.00000000</i>
   <v name="DFIELD">      0.00000000      0.00000000      0.00000000</v>
   <v name="WPLASMA">      0.00000000      0.00000000      0.00000000      0.00000000      0.00000000      0.00000000      0.00000000      0.00000000      0.00000000</v>
  </separator>
  <separator name="orbital magnetization" >
   <i type="logical" name="NUCIND"> F  </i>
   <v name="MAGPOS">      0.00000000      0.00000000      0.00000000</v>
   <i type="logical" name="LNICSALL"> T  </i>
   <i type="logical" name="ORBITALMAG"> F  </i>
   <i type="logical" name="LMAGBLOCH"> F  </i>
   <i type="logical" name="LCHIMAG"> F  </i>
   <i type="logical" name="LGAUGE"> T  </i>
   <i type="int" name="MAGATOM">     0</i>
   <v name="MAGDIPOL">      0.00000000      0.00000000      0.00000000</v>
   <v name="AVECCONST">      0.00000000      0.00000000      0.00000000</v>
  </separator>
  <separator name="response functions" >
   <i type="logical" name="LALL_IN_ONE"> F  </i>
   <i type="int" name="IALL_IN_ONE">    -1</i>
   <i type="int" name="NBANDS_WAVE">    -1</i>
   <i type="logical" name="LFINITE_TEMPERATURE"> F  </i>
   <i type="logical" name="LADDER"> F  </i>
   <i type="logical" name="LRPAFORCE"> F  </i>
   <i type="logical" name="LFXC"> F  </i>
   <i type="logical" name="LHARTREE"> T  </i>
   <i type="int" name="IBSE">     0</i>
   <v type="int" name="KPOINT">    -1     0     0     0</v>
   <i type="logical" name="LTCTC"> F  </i>
   <i type="logical" name="LTCTE"> F  </i>
   <i type="logical" name="LTETE"> F  </i>
   <i type="logical" name="LTRIPLET"> F  </i>
   <i type="logical" name="LFXCEPS"> F  </i>
   <i type="logical" name="LFXHEG"> F  </i>
   <i type="int" name="NATURALO">     2</i>
   <i type="logical" name="LHOLEGF"> F  </i>
   <i type="logical" name="L2ORDER"> F  </i>
   <i type="logical" name="LDMP1"> F  </i>
   <i type="logical" name="LMP2LT"> F  </i>
   <i type="logical" name="LSMP2LT"> F  </i>
   <i type="logical" name="LGWLF"> F  </i>
   <i name="ENCUTGW">     -1.60000002</i>
   <i name="ENCUTGWSOFT">     -1.60000002</i>
   <i name="ENCUTLF">     -1.00000000</i>
   <i type="logical" name="LESF_SPLINES"> F  </i>
   <i type="int" name="LMAXMP2">    -1</i>
   <i name="SCISSOR">      0.00000000</i>
   <i type="int" name="NOMEGA">     0</i>
   <i type="int" name="NOMEGAR">     0</i>
   <i type="int" name="NBANDSGW">    -1</i>
   <i type="int" name="NBANDSO">    -1</i>
   <i type="int" name="NBANDSV">    -1</i>
   <i type="int" name="NELMGW">     1</i>
   <i type="int" name="NELMHF">     1</i>
   <i type="int" name="DIM">     3</i>
   <i type="int" name="IESPILON">     4</i>
   <i type="int" name="ANTIRES">     0</i>
   <i name="OMEGAMAX">    -30.00000000</i>
   <i name="OMEGAMIN">    -30.00000000</i>
   <i name="OMEGATL">   -200.00000000</i>
   <i type="int" name="OMEGAGRID">     0</i>
   <i name="CSHIFT">     -0.10000000</i>
   <i type="logical" name="LSELFENERGY"> F  </i>
   <i type="logical" name="LSPECTRAL"> F  </i>
   <i type="logical" name="LSPECTRALGW"> F  </i>
   <i type="logical" name="LSINGLES"> F  </i>
   <i type="logical" name="LFERMIGW"> F  </i>
   <i type="logical" name="ODDONLYGW"> F  </i>
   <i type="logical" name="EVENONLYGW"> F  </i>
   <i type="int" name="NKREDLFX">     1</i>
   <i type="int" name="NKREDLFY">     1</i>
   <i type="int" name="NKREDLFZ">     1</i>
   <i type="int" name="MAXMEM">  2800</i>
   <i type="int" name="TELESCOPE">     0</i>
   <i type="int" name="NTAUPAR">    -1</i>
   <i type="int" name="NOMEGAPAR">    -1</i>
   <i name="DAMP_NEWTON">      0.80000001</i>
   <i name="LAMBDA">      1.00000000</i>
  </separator>
  <separator name="External order field" >
   <i name="OFIELD_KAPPA">      0.00000000</i>
   <v name="OFIELD_K">      0.00000000      0.00000000      0.00000000</v>
   <i name="OFIELD_Q6_NEAR">      0.00000000</i>
   <i name="OFIELD_Q6_FAR">      0.00000000</i>
   <i name="OFIELD_A">      0.00000000</i>
  </separator>
  <separator name="optional k-points parameters" >
   <i type="int" name="KPOINTS_OPT_MODE">     1</i>
   <i type="logical" name="LKPOINTS_OPT"> F  </i>
  </separator>
 </parameters>
 <atominfo>
  <atoms>      18 </atoms>
  <types>       1 </types>
  <array name="atoms" >
   <dimension dim="1">ion</dimension>
   <field type="string">element</field>
   <field type="int">atomtype</field>
   <set>
    <rc><c>C </c><c>   1</c></rc>
    <rc><c>C </c><c>   1</c></rc>
    <rc><c>C </c><c>   1</c></rc>
    <rc><c>C </c><c>   1</c></rc>
    <rc><c>C </c><c>   1</c></rc>
    <rc><c>C </c><c>   1</c></rc>
    <rc><c>C </c><c>   1</c></rc>
    <rc><c>C </c><c>   1</c></rc>
    <rc><c>C </c><c>   1</c></rc>
    <rc><c>C </c><c>   1</c></rc>
    <rc><c>C </c><c>   1</c></rc>
    <rc><c>C </c><c>   1</c></rc>
    <rc><c>C </c><c>   1</c></rc>
    <rc><c>C </c><c>   1</c></rc>
    <rc><c>C </c><c>   1</c></rc>
    <rc><c>C </c><c>   1</c></rc>
    <rc><c>C </c><c>   1</c></rc>
    <rc><c>C </c><c>   1</c></rc>
   </set>
  </array>
  <array name="atomtypes" >
   <dimension dim="1">type</dimension>
   <field type="int">atomspertype</field>
   <field type="string">element</field>
   <field>mass</field>
   <field>valence</field>
   <field type="string">pseudopotential</field>
   <set>
    <rc><c>  18</c><c>C </c><c>     12.01100000</c><c>      4.00000000</c><c>  PAW_PBE C 08Apr2002                   </c></rc>
   </set>
  </array>
 </atominfo>
 <structure name="initialpos" >
  <crystal>
   <varray name="basis" >
    <v>       7.40170591       0.00000000       0.00000000 </v>
    <v>      -3.70085295       6.41006527       0.00000000 </v>
    <v>       0.00000000       0.00000000      20.00000000 </v>
   </varray>
   <i name="volume">    948.90835877 </i>
   <varray name="rec_basis" >
    <v>       0.13510399       0.07800233       0.00000000 </v>
    <v>       0.00000000       0.15600465       0.00000000 </v>
    <v>       0.00000000       0.00000000       0.05000000 </v>
   </varray>
  </crystal>
  <varray name="positions" >
   <v>       0.99864896       0.00000000       0.50000000 </v>
   <v>       0.33333333       0.00000000       0.50000000 </v>
   <v>       0.66666667       0.00000000       0.50000000 </v>
   <v>       0.00000000       0.33333333       0.50000000 </v>
   <v>       0.33333333       0.33333333       0.50000000 </v>
   <v>       0.66666667       0.33333333       0.50000000 </v>
   <v>       0.00000000       0.66666667       0.50000000 </v>
   <v>       0.33333333       0.66666667       0.50000000 </v>
   <v>       0.66666667       0.66666667       0.50000000 </v>
   <v>       0.22357326       0.11111111       0.50000000 </v>
   <v>       0.55555556       0.11111111       0.50000000 </v>
   <v>       0.88888889       0.11111111       0.50000000 </v>
   <v>       0.22222222       0.44444444       0.50000000 </v>
   <v>       0.55555556       0.44444444       0.50000000 </v>
   <v>       0.88888889       0.44444444       0.50000000 </v>
   <v>       0.22222222       0.77777778       0.50000000 </v>
   <v>       0.55555556       0.77777778       0.50000000 </v>
   <v>       0.88888889       0.77777778       0.50000000 </v>
  </varray>
 </structure>
 <calculation>
  <scstep>
   <time name="dav">    5.97    6.18</time>
   <time name="total">    6.07    6.27</time>
   <energy>
    <i name="alphaZ">     28.04858418 </i>
    <i name="ewald">  11638.88705071 </i>
    <i name="hartreedc"> -13553.18437193 </i>
    <i name="XCdc">    237.17793466 </i>
    <i name="pawpsdc">   1953.39683484 </i>
    <i name="pawaedc">  -1963.64613940 </i>
    <i name="eentropy">     -0.00830317 </i>
    <i name="bandstr">   -257.80162611 </i>
    <i name="atom">   2648.70517965 </i>
    <i name="e_fr_energy">    731.57514343 </i>
    <i name="e_wo_entrp">    731.58344660 </i>
    <i name="e_0_energy">    731.57929502 </i>
   </energy>
  </scstep>
  <scstep>
   <time name="dav">    8.02    8.35</time>
   <time name="total">    8.02    8.35</time>
   <energy>
    <i name="e_fr_energy">    -23.94808723 </i>
    <i name="e_wo_entrp">    -23.94789781 </i>
    <i name="e_0_energy">    -23.94799252 </i>
   </energy>
  </scstep>
  <scstep>
   <time name="dav">    6.46    6.72</time>
   <time name="total">    6.46    6.72</time>
   <energy>
    <i name="e_fr_energy">   -172.28352683 </i>
    <i name="e_wo_entrp">   -172.28230481 </i>
    <i name="e_0_energy">   -172.28291582 </i>
   </energy>
  </scstep>
  <scstep>
   <time name="dav">    6.39    6.63</time>
   <time name="total">    6.39    6.63</time>
   <energy>
    <i name="e_fr_energy">   -177.34695607 </i>
    <i name="e_wo_entrp">   -177.34506974 </i>
    <i name="e_0_energy">   -177.34601290 </i>
   </energy>
  </scstep>
  <scstep>
   <time name="dav">    7.27    6.34</time>
   <time name="total">    7.53    6.62</time>
   <energy>
    <i name="e_fr_energy">   -177.48299019 </i>
    <i name="e_wo_entrp">   -177.48109766 </i>
    <i name="e_0_energy">   -177.48204392 </i>
   </energy>
  </scstep>
  <scstep>
   <time name="dav">    6.00    6.22</time>
   <time name="total">    6.35    6.58</time>
   <energy>
    <i name="e_fr_energy">   -169.31450335 </i>
    <i name="e_wo_entrp">   -169.31254029 </i>
    <i name="e_0_energy">   -169.31352182 </i>
   </energy>
  </scstep>
  <scstep>
   <time name="dav">    6.05    6.27</time>
   <time name="total">    6.40    6.64</time>
   <energy>
    <i name="e_fr_energy">   -166.14647964 </i>
    <i name="e_wo_entrp">   -166.14447305 </i>
    <i name="e_0_energy">   -166.14547634 </i>
   </energy>
  </scstep>
  <scstep>
   <time name="dav">    6.28    6.52</time>
   <time name="total">    6.63    6.88</time>
   <energy>
    <i name="e_fr_energy">   -166.08354202 </i>
    <i name="e_wo_entrp">   -166.08155078 </i>
    <i name="e_0_energy">   -166.08254640 </i>
   </energy>
  </scstep>
  <scstep>
   <time name="dav">    6.68    5.77</time>
   <time name="total">    7.03    6.13</time>
   <energy>
    <i name="e_fr_energy">   -166.07073221 </i>
    <i name="e_wo_entrp">   -166.06873695 </i>
    <i name="e_0_energy">   -166.06973458 </i>
   </energy>
  </scstep>
  <scstep>
   <time name="dav">    5.86    6.08</time>
   <time name="total">    6.21    6.44</time>
   <energy>
    <i name="e_fr_energy">   -166.05214950 </i>
    <i name="e_wo_entrp">   -166.05015103 </i>
    <i name="e_0_energy">   -166.05115027 </i>
   </energy>
  </scstep>
  <scstep>
   <time name="dav">    5.79    6.00</time>
   <time name="total">    6.12    6.35</time>
   <energy>
    <i name="e_fr_energy">   -166.05572493 </i>
    <i name="e_wo_entrp">   -166.05372834 </i>
    <i name="e_0_energy">   -166.05472664 </i>
   </energy>
  </scstep>
  <scstep>
   <time name="dav">    5.69    5.90</time>
   <time name="total">    6.02    6.25</time>
   <energy>
    <i name="e_fr_energy">   -166.06015808 </i>
    <i name="e_wo_entrp">   -166.05816198 </i>
    <i name="e_0_energy">   -166.05916003 </i>
   </energy>
  </scstep>
  <scstep>
   <time name="dav">    5.91    6.13</time>
   <time name="total">    6.25    6.48</time>
   <energy>
    <i name="e_fr_energy">   -166.06461126 </i>
    <i name="e_wo_entrp">   -166.06261432 </i>
    <i name="e_0_energy">   -166.06361279 </i>
   </energy>
  </scstep>
  <scstep>
   <time name="dav">    5.69    4.73</time>
   <time name="total">    6.04    5.09</time>
   <energy>
    <i name="e_fr_energy">   -166.06817068 </i>
    <i name="e_wo_entrp">   -166.06617369 </i>
    <i name="e_0_energy">   -166.06717219 </i>
   </energy>
  </scstep>
  <scstep>
   <time name="dav">    5.92    6.14</time>
   <time name="total">    6.26    6.49</time>
   <energy>
    <i name="e_fr_energy">   -166.06952740 </i>
    <i name="e_wo_entrp">   -166.06753037 </i>
    <i name="e_0_energy">   -166.06852888 </i>
   </energy>
  </scstep>
  <scstep>
   <time name="dav">    6.05    6.28</time>
   <time name="total">    6.40    6.64</time>
   <energy>
    <i name="e_fr_energy">   -166.06970849 </i>
    <i name="e_wo_entrp">   -166.06771154 </i>
    <i name="e_0_energy">   -166.06871002 </i>
   </energy>
  </scstep>
  <scstep>
   <time name="dav">    5.16    5.36</time>
   <time name="total">    5.49    5.71</time>
   <energy>
    <i name="e_fr_energy">   -166.06991561 </i>
    <i name="e_wo_entrp">   -166.06791880 </i>
    <i name="e_0_energy">   -166.06891721 </i>
   </energy>
  </scstep>
  <scstep>
   <time name="dav">    5.14    5.34</time>
   <time name="total">    5.49    5.70</time>
   <energy>
    <i name="e_fr_energy">   -166.06995755 </i>
    <i name="e_wo_entrp">   -166.06796064 </i>
    <i name="e_0_energy">   -166.06895910 </i>
   </energy>
  </scstep>
  <scstep>
   <time name="dav">    5.06    5.25</time>
   <time name="total">    5.40    5.60</time>
   <energy>
    <i name="e_fr_energy">   -166.06999058 </i>
    <i name="e_wo_entrp">   -166.06799364 </i>
    <i name="e_0_energy">   -166.06899211 </i>
   </energy>
  </scstep>
  <scstep>
   <time name="dav">    4.70    3.68</time>
   <time name="total">    5.05    4.04</time>
   <energy>
    <i name="e_fr_energy">   -166.07001372 </i>
    <i name="e_wo_entrp">   -166.06801682 </i>
    <i name="e_0_energy">   -166.06901527 </i>
   </energy>
  </scstep>
  <scstep>
   <time name="dav">    4.00    4.14</time>
   <time name="total">    4.34    4.49</time>
   <energy>
    <i name="e_fr_energy">   -166.07002158 </i>
    <i name="e_wo_entrp">   -166.06802466 </i>
    <i name="e_0_energy">   -166.06902312 </i>
   </energy>
  </scstep>
  <scstep>
   <time name="dav">    3.90    4.05</time>
   <time name="total">    4.23    4.40</time>
   <energy>
    <i name="e_fr_energy">   -166.07002460 </i>
    <i name="e_wo_entrp">   -166.06802769 </i>
    <i name="e_0_energy">   -166.06902615 </i>
   </energy>
  </scstep>
  <scstep>
   <time name="dav">    4.18    4.36</time>
   <time name="total">    4.26    4.45</time>
   <energy>
    <i name="alphaZ">     28.04858418 </i>
    <i name="ewald">  11638.88705071 </i>
    <i name="hartreedc"> -13861.53370896 </i>
    <i name="XCdc">    247.81494577 </i>
    <i name="pawpsdc">   7453.17385448 </i>
    <i name="pawaedc">  -7465.43738383 </i>
    <i name="eentropy">     -0.00199691 </i>
    <i name="bandstr">   -855.72654986 </i>
    <i name="atom">   2648.70517965 </i>
    <i name="e_fr_energy">   -166.07002476 </i>
    <i name="e_wo_entrp">   -166.06802785 </i>
    <i name="e_0_energy">   -166.06902631 </i>
   </energy>
  </scstep>
  <structure>
   <crystal>
    <varray name="basis" >
     <v>       7.40170591       0.00000000       0.00000000 </v>
     <v>      -3.70085295       6.41006527       0.00000000 </v>
     <v>       0.00000000       0.00000000      20.00000000 </v>
    </varray>
    <i name="volume">    948.90835877 </i>
    <varray name="rec_basis" >
     <v>       0.13510399       0.07800233       0.00000000 </v>
     <v>       0.00000000       0.15600465       0.00000000 </v>
     <v>       0.00000000       0.00000000       0.05000000 </v>
    </varray>
   </crystal>
   <varray name="positions" >
    <v>       0.99864896       0.00000000       0.50000000 </v>
    <v>       0.33333333       0.00000000       0.50000000 </v>
    <v>       0.66666667       0.00000000       0.50000000 </v>
    <v>       0.00000000       0.33333333       0.50000000 </v>
    <v>       0.33333333       0.33333333       0.50000000 </v>
    <v>       0.66666667       0.33333333       0.50000000 </v>
    <v>       0.00000000       0.66666667       0.50000000 </v>
    <v>       0.33333333       0.66666667       0.50000000 </v>
    <v>       0.66666667       0.66666667       0.50000000 </v>
    <v>       0.22357326       0.11111111       0.50000000 </v>
    <v>       0.55555556       0.11111111       0.50000000 </v>
    <v>       0.88888889       0.11111111       0.50000000 </v>
    <v>       0.22222222       0.44444444       0.50000000 </v>
    <v>       0.55555556       0.44444444       0.50000000 </v>
    <v>       0.88888889       0.44444444       0.50000000 </v>
    <v>       0.22222222       0.77777778       0.50000000 </v>
    <v>       0.55555556       0.77777778       0.50000000 </v>
    <v>       0.88888889       0.77777778       0.50000000 </v>
   </varray>
  </structure>
  <varray name="forces" >
   <v>       0.78692074       0.03668443      -0.00000000 </v>
   <v>       0.15931253      -0.04621718      -0.00000000 </v>
   <v>      -0.05192601      -0.01288535      -0.00000000 </v>
   <v>      -0.01171952       0.06773814      -0.00000000 </v>
   <v>       0.11350106      -0.04458096       0.00000000 </v>
   <v>      -0.04614607      -0.02222748       0.00000000 </v>
   <v>       0.02686304       0.01983204      -0.00000000 </v>
   <v>      -0.04722059      -0.00914339       0.00000000 </v>
   <v>      -0.01186802      -0.00903122      -0.00000000 </v>
   <v>      -0.78692074      -0.03668443       0.00000000 </v>
   <v>       0.05192601       0.01288535       0.00000000 </v>
   <v>      -0.15931253       0.04621718       0.00000000 </v>
   <v>      -0.02686304      -0.01983204       0.00000000 </v>
   <v>       0.01186802       0.00903122       0.00000000 </v>
   <v>       0.04722059       0.00914339      -0.00000000 </v>
   <v>       0.01171952      -0.06773814       0.00000000 </v>
   <v>       0.04614607       0.02222748      -0.00000000 </v>
   <v>      -0.11350106       0.04458096      -0.00000000 </v>
  </varray>
  <varray name="stress" >
   <v>      -0.12053238      -0.13573238       0.00000000 </v>
   <v>      -0.13573238      -0.13906231       0.00000000 </v>
   <v>       0.00000000       0.00000000      -0.56480326 </v>
  </varray>
  <energy>
   <i name="e_fr_energy">   -166.07002476 </i>
   <i name="e_wo_entrp">   -166.06802785 </i>
   <i name="e_0_energy">   -166.06902631 </i>
  </energy>
  <time name="totalsc">  143.64  144.37</time>
  <eigenvalues>
   <array>
    <dimension dim="1">band</dimension>
    <dimension dim="2">kpoint</dimension>
    <dimension dim="3">spin</dimension>
    <field>eigene</field>
    <field>occ</field>
    <set>
     <set comment="spin 1">
      <set comment="kpoint 1">
       <r>  -22.2560    1.0000 </r>
       <r>  -19.7006    1.0000 </r>
       <r>  -19.6797    1.0000 </r>
       <r>  -19.6755    1.0000 </r>
       <r>  -19.6738    1.0000 </r>
       <r>  -19.6703    1.0000 </r>
       <r>  -19.6411    1.0000 </r>
       <r>  -15.3614    1.0000 </r>
       <r>  -15.3482    1.0000 </r>
       <r>  -15.3406    1.0000 </r>
       <r>  -15.3133    1.0000 </r>
       <r>  -13.2939    1.0000 </r>
       <r>  -13.2857    1.0000 </r>
       <r>  -12.4056    1.0000 </r>
       <r>  -12.3909    1.0000 </r>
       <r>  -12.3838    1.0000 </r>
       <r>  -12.3774    1.0000 </r>
       <r>  -12.3586    1.0000 </r>
       <r>  -12.3311    1.0000 </r>
       <r>  -10.3600    1.0000 </r>
       <r>   -8.5532    1.0000 </r>
       <r>   -8.5435    1.0000 </r>
       <r>   -8.5283    1.0000 </r>
       <r>   -8.5233    1.0000 </r>
       <r>   -8.5204    1.0000 </r>
       <r>   -8.4724    1.0000 </r>
       <r>   -7.3954    1.0000 </r>
       <r>   -7.3754    1.0000 </r>
       <r>   -7.3722    1.0000 </r>
       <r>   -7.3703    1.0000 </r>
       <r>   -7.3695    1.0000 </r>
       <r>   -7.3430    1.0000 </r>
       <r>   -5.8168    1.0000 </r>
       <r>   -5.7507    1.0000 </r>
       <r>   -2.7816    0.7705 </r>
       <r>   -2.7586    0.5363 </r>
       <r>   -2.7543    0.4878 </r>
       <r>   -2.7264    0.2054 </r>
       <r>    0.5196    0.0000 </r>
       <r>    1.3120    0.0000 </r>
       <r>    1.6357    0.0000 </r>
       <r>    2.1060    0.0000 </r>
       <r>    2.1383    0.0000 </r>
       <r>    2.1419    0.0000 </r>
       <r>    2.1434    0.0000 </r>
       <r>    2.1530    0.0000 </r>
      </set>
      <set comment="kpoint 2">
       <r>  -22.2024    1.0000 </r>
       <r>  -20.3490    1.0000 </r>
       <r>  -19.9867    1.0000 </r>
       <r>  -19.9830    1.0000 </r>
       <r>  -19.2651    1.0000 </r>
       <r>  -19.2600    1.0000 </r>
       <r>  -18.9056    1.0000 </r>
       <r>  -16.0022    1.0000 </r>
       <r>  -15.9874    1.0000 </r>
       <r>  -14.9250    1.0000 </r>
       <r>  -14.9046    1.0000 </r>
       <r>  -13.5885    1.0000 </r>
       <r>  -12.9835    1.0000 </r>
       <r>  -12.9786    1.0000 </r>
       <r>  -12.9515    1.0000 </r>
       <r>  -12.9463    1.0000 </r>
       <r>  -11.7510    1.0000 </r>
       <r>  -11.7329    1.0000 </r>
       <r>  -11.1049    1.0000 </r>
       <r>  -10.2960    1.0000 </r>
       <r>   -8.8730    1.0000 </r>
       <r>   -8.8493    1.0000 </r>
       <r>   -8.8371    1.0000 </r>
       <r>   -8.5160    1.0000 </r>
       <r>   -8.4837    1.0000 </r>
       <r>   -8.1472    1.0000 </r>
       <r>   -8.1295    1.0000 </r>
       <r>   -7.7150    1.0000 </r>
       <r>   -7.7089    1.0000 </r>
       <r>   -6.9250    1.0000 </r>
       <r>   -6.9172    1.0000 </r>
       <r>   -6.5624    1.0000 </r>
       <r>   -5.9813    1.0000 </r>
       <r>   -5.9225    1.0000 </r>
       <r>   -3.5333    1.0000 </r>
       <r>   -3.5192    1.0000 </r>
       <r>   -2.0134    0.0000 </r>
       <r>   -1.9967    0.0000 </r>
       <r>    0.5923    0.0000 </r>
       <r>    0.8884    0.0000 </r>
       <r>    1.3856    0.0000 </r>
       <r>    1.4629    0.0000 </r>
       <r>    1.4763    0.0000 </r>
       <r>    1.7102    0.0000 </r>
       <r>    2.6298    0.0000 </r>
       <r>    2.7509    0.0000 </r>
      </set>
      <set comment="kpoint 3">
       <r>  -22.2024    1.0000 </r>
       <r>  -20.3493    1.0000 </r>
       <r>  -19.9982    1.0000 </r>
       <r>  -19.9708    1.0000 </r>
       <r>  -19.2761    1.0000 </r>
       <r>  -19.2488    1.0000 </r>
       <r>  -18.9062    1.0000 </r>
       <r>  -16.0087    1.0000 </r>
       <r>  -15.9824    1.0000 </r>
       <r>  -14.9274    1.0000 </r>
       <r>  -14.8989    1.0000 </r>
       <r>  -13.5986    1.0000 </r>
       <r>  -12.9837    1.0000 </r>
       <r>  -12.9688    1.0000 </r>
       <r>  -12.9556    1.0000 </r>
       <r>  -12.9441    1.0000 </r>
       <r>  -11.7485    1.0000 </r>
       <r>  -11.7224    1.0000 </r>
       <r>  -11.1169    1.0000 </r>
       <r>  -10.2960    1.0000 </r>
       <r>   -8.8806    1.0000 </r>
       <r>   -8.8567    1.0000 </r>
       <r>   -8.8205    1.0000 </r>
       <r>   -8.5242    1.0000 </r>
       <r>   -8.4947    1.0000 </r>
       <r>   -8.1300    1.0000 </r>
       <r>   -8.1272    1.0000 </r>
       <r>   -7.7255    1.0000 </r>
       <r>   -7.7018    1.0000 </r>
       <r>   -6.9345    1.0000 </r>
       <r>   -6.9110    1.0000 </r>
       <r>   -6.5570    1.0000 </r>
       <r>   -6.0133    1.0000 </r>
       <r>   -5.8902    1.0000 </r>
       <r>   -3.5405    1.0000 </r>
       <r>   -3.5130    1.0000 </r>
       <r>   -2.0206    0.0000 </r>
       <r>   -1.9884    0.0000 </r>
       <r>    0.5923    0.0000 </r>
       <r>    0.8749    0.0000 </r>
       <r>    1.3855    0.0000 </r>
       <r>    1.4555    0.0000 </r>
       <r>    1.4927    0.0000 </r>
       <r>    1.7102    0.0000 </r>
       <r>    2.6298    0.0000 </r>
       <r>    2.7439    0.0000 </r>
      </set>
      <set comment="kpoint 4">
       <r>  -22.2024    1.0000 </r>
       <r>  -20.3497    1.0000 </r>
       <r>  -19.9897    1.0000 </r>
       <r>  -19.9787    1.0000 </r>
       <r>  -19.2679    1.0000 </r>
       <r>  -19.2568    1.0000 </r>
       <r>  -18.9063    1.0000 </r>
       <r>  -15.9996    1.0000 </r>
       <r>  -15.9928    1.0000 </r>
       <r>  -14.9194    1.0000 </r>
       <r>  -14.9043    1.0000 </r>
       <r>  -13.6071    1.0000 </r>
       <r>  -12.9807    1.0000 </r>
       <r>  -12.9693    1.0000 </r>
       <r>  -12.9566    1.0000 </r>
       <r>  -12.9395    1.0000 </r>
       <r>  -11.7379    1.0000 </r>
       <r>  -11.7188    1.0000 </r>
       <r>  -11.1293    1.0000 </r>
       <r>  -10.2960    1.0000 </r>
       <r>   -8.8785    1.0000 </r>
       <r>   -8.8649    1.0000 </r>
       <r>   -8.8132    1.0000 </r>
       <r>   -8.5279    1.0000 </r>
       <r>   -8.5078    1.0000 </r>
       <r>   -8.1252    1.0000 </r>
       <r>   -8.1147    1.0000 </r>
       <r>   -7.7197    1.0000 </r>
       <r>   -7.7111    1.0000 </r>
       <r>   -6.9288    1.0000 </r>
       <r>   -6.9201    1.0000 </r>
       <r>   -6.5514    1.0000 </r>
       <r>   -6.0330    1.0000 </r>
       <r>   -5.8702    1.0000 </r>
       <r>   -3.5336    1.0000 </r>
       <r>   -3.5209    1.0000 </r>
       <r>   -2.0119    0.0000 </r>
       <r>   -1.9958    0.0000 </r>
       <r>    0.5923    0.0000 </r>
       <r>    0.8616    0.0000 </r>
       <r>    1.3855    0.0000 </r>
       <r>    1.4700    0.0000 </r>
       <r>    1.4867    0.0000 </r>
       <r>    1.7102    0.0000 </r>
       <r>    2.6298    0.0000 </r>
       <r>    2.7606    0.0000 </r>
      </set>
      <set comment="kpoint 5">
       <r>  -22.0419    1.0000 </r>
       <r>  -20.9265    1.0000 </r>
       <r>  -20.1950    1.0000 </r>
       <r>  -20.1915    1.0000 </r>
       <r>  -18.7583    1.0000 </r>
       <r>  -18.7526    1.0000 </r>
       <r>  -18.0635    1.0000 </r>
       <r>  -16.7502    1.0000 </r>
       <r>  -16.7387    1.0000 </r>
       <r>  -14.7463    1.0000 </r>
       <r>  -14.6346    1.0000 </r>
       <r>  -14.6169    1.0000 </r>
       <r>  -13.5109    1.0000 </r>
       <r>  -13.4957    1.0000 </r>
       <r>  -12.1878    1.0000 </r>
       <r>  -12.1756    1.0000 </r>
       <r>  -11.1176    1.0000 </r>
       <r>  -11.0981    1.0000 </r>
       <r>  -10.1049    1.0000 </r>
       <r>   -9.8462    1.0000 </r>
       <r>   -9.5016    1.0000 </r>
       <r>   -9.4784    1.0000 </r>
       <r>   -9.0513    1.0000 </r>
       <r>   -8.7932    1.0000 </r>
       <r>   -8.7635    1.0000 </r>
       <r>   -8.7342    1.0000 </r>
       <r>   -7.9460    1.0000 </r>
       <r>   -7.9401    1.0000 </r>
       <r>   -7.6890    1.0000 </r>
       <r>   -6.5978    1.0000 </r>
       <r>   -6.3803    1.0000 </r>
       <r>   -6.3719    1.0000 </r>
       <r>   -6.2410    1.0000 </r>
       <r>   -5.7738    1.0000 </r>
       <r>   -4.3043    1.0000 </r>
       <r>   -4.2916    1.0000 </r>
       <r>   -1.2928    0.0000 </r>
       <r>   -1.2756    0.0000 </r>
       <r>   -0.2204    0.0000 </r>
       <r>    0.7773    0.0000 </r>
       <r>    0.7919    0.0000 </r>
       <r>    0.8102    0.0000 </r>
       <r>    1.6063    0.0000 </r>
       <r>    1.9336    0.0000 </r>
       <r>    2.3341    0.0000 </r>
       <r>    2.8511    0.0000 </r>
      </set>
      <set comment="kpoint 6">
       <r>  -22.0419    1.0000 </r>
       <r>  -20.9268    1.0000 </r>
       <r>  -20.2065    1.0000 </r>
       <r>  -20.1793    1.0000 </r>
       <r>  -18.7691    1.0000 </r>
       <r>  -18.7417    1.0000 </r>
       <r>  -18.0632    1.0000 </r>
       <r>  -16.7589    1.0000 </r>
       <r>  -16.7318    1.0000 </r>
       <r>  -14.7542    1.0000 </r>
       <r>  -14.6375    1.0000 </r>
       <r>  -14.6105    1.0000 </r>
       <r>  -13.5114    1.0000 </r>
       <r>  -13.4868    1.0000 </r>
       <r>  -12.1990    1.0000 </r>
       <r>  -12.1693    1.0000 </r>
       <r>  -11.1114    1.0000 </r>
       <r>  -11.0850    1.0000 </r>
       <r>  -10.1047    1.0000 </r>
       <r>   -9.8604    1.0000 </r>
       <r>   -9.5108    1.0000 </r>
       <r>   -9.4804    1.0000 </r>
       <r>   -9.0377    1.0000 </r>
       <r>   -8.7918    1.0000 </r>
       <r>   -8.7738    1.0000 </r>
       <r>   -8.7480    1.0000 </r>
       <r>   -7.9567    1.0000 </r>
       <r>   -7.9330    1.0000 </r>
       <r>   -7.6706    1.0000 </r>
       <r>   -6.6238    1.0000 </r>
       <r>   -6.3894    1.0000 </r>
       <r>   -6.3657    1.0000 </r>
       <r>   -6.2138    1.0000 </r>
       <r>   -5.7650    1.0000 </r>
       <r>   -4.3119    1.0000 </r>
       <r>   -4.2861    1.0000 </r>
       <r>   -1.2999    0.0000 </r>
       <r>   -1.2655    0.0000 </r>
       <r>   -0.2378    0.0000 </r>
       <r>    0.7696    0.0000 </r>
       <r>    0.8067    0.0000 </r>
       <r>    0.8102    0.0000 </r>
       <r>    1.6063    0.0000 </r>
       <r>    1.9336    0.0000 </r>
       <r>    2.3341    0.0000 </r>
       <r>    2.8512    0.0000 </r>
      </set>
      <set comment="kpoint 7">
       <r>  -22.0420    1.0000 </r>
       <r>  -20.9271    1.0000 </r>
       <r>  -20.1982    1.0000 </r>
       <r>  -20.1869    1.0000 </r>
       <r>  -18.7608    1.0000 </r>
       <r>  -18.7503    1.0000 </r>
       <r>  -18.0627    1.0000 </r>
       <r>  -16.7499    1.0000 </r>
       <r>  -16.7417    1.0000 </r>
       <r>  -14.7644    1.0000 </r>
       <r>  -14.6294    1.0000 </r>
       <r>  -14.6131    1.0000 </r>
       <r>  -13.5035    1.0000 </r>
       <r>  -13.4879    1.0000 </r>
       <r>  -12.1930    1.0000 </r>
       <r>  -12.1787    1.0000 </r>
       <r>  -11.0982    1.0000 </r>
       <r>  -11.0785    1.0000 </r>
       <r>  -10.1046    1.0000 </r>
       <r>   -9.8748    1.0000 </r>
       <r>   -9.5075    1.0000 </r>
       <r>   -9.4932    1.0000 </r>
       <r>   -9.0254    1.0000 </r>
       <r>   -8.7906    1.0000 </r>
       <r>   -8.7822    1.0000 </r>
       <r>   -8.7626    1.0000 </r>
       <r>   -7.9509    1.0000 </r>
       <r>   -7.9423    1.0000 </r>
       <r>   -7.6536    1.0000 </r>
       <r>   -6.6465    1.0000 </r>
       <r>   -6.3837    1.0000 </r>
       <r>   -6.3747    1.0000 </r>
       <r>   -6.1901    1.0000 </r>
       <r>   -5.7562    1.0000 </r>
       <r>   -4.3055    1.0000 </r>
       <r>   -4.2941    1.0000 </r>
       <r>   -1.2902    0.0000 </r>
       <r>   -1.2730    0.0000 </r>
       <r>   -0.2545    0.0000 </r>
       <r>    0.7828    0.0000 </r>
       <r>    0.8004    0.0000 </r>
       <r>    0.8103    0.0000 </r>
       <r>    1.6063    0.0000 </r>
       <r>    1.9336    0.0000 </r>
       <r>    2.3341    0.0000 </r>
       <r>    2.8512    0.0000 </r>
      </set>
      <set comment="kpoint 8">
       <r>  -21.7750    1.0000 </r>
       <r>  -21.4026    1.0000 </r>
       <r>  -20.2995    1.0000 </r>
       <r>  -20.2962    1.0000 </r>
       <r>  -18.1616    1.0000 </r>
       <r>  -18.1554    1.0000 </r>
       <r>  -17.4853    1.0000 </r>
       <r>  -17.4767    1.0000 </r>
       <r>  -17.2321    1.0000 </r>
       <r>  -15.7331    1.0000 </r>
       <r>  -14.3335    1.0000 </r>
       <r>  -14.3175    1.0000 </r>
       <r>  -13.9618    1.0000 </r>
       <r>  -13.9467    1.0000 </r>
       <r>  -11.2634    1.0000 </r>
       <r>  -11.2481    1.0000 </r>
       <r>  -10.6233    1.0000 </r>
       <r>  -10.6032    1.0000 </r>
       <r>  -10.3324    1.0000 </r>
       <r>  -10.3143    1.0000 </r>
       <r>   -9.7882    1.0000 </r>
       <r>   -9.3491    1.0000 </r>
       <r>   -9.1575    1.0000 </r>
       <r>   -9.0846    1.0000 </r>
       <r>   -9.0614    1.0000 </r>
       <r>   -8.6275    1.0000 </r>
       <r>   -8.0624    1.0000 </r>
       <r>   -8.0566    1.0000 </r>
       <r>   -7.5169    1.0000 </r>
       <r>   -7.1888    1.0000 </r>
       <r>   -6.6857    1.0000 </r>
       <r>   -5.7506    1.0000 </r>
       <r>   -5.7417    1.0000 </r>
       <r>   -5.2116    1.0000 </r>
       <r>   -5.0514    1.0000 </r>
       <r>   -5.0391    1.0000 </r>
       <r>   -0.9498    0.0000 </r>
       <r>   -0.5952    0.0000 </r>
       <r>   -0.5779    0.0000 </r>
       <r>    0.0922    0.0000 </r>
       <r>    0.1076    0.0000 </r>
       <r>    1.1734    0.0000 </r>
       <r>    1.6817    0.0000 </r>
       <r>    1.9737    0.0000 </r>
       <r>    2.3060    0.0000 </r>
       <r>    2.4865    0.0000 </r>
      </set>
      <set comment="kpoint 9">
       <r>  -21.7751    1.0000 </r>
       <r>  -21.4029    1.0000 </r>
       <r>  -20.3110    1.0000 </r>
       <r>  -20.2838    1.0000 </r>
       <r>  -18.1721    1.0000 </r>
       <r>  -18.1446    1.0000 </r>
       <r>  -17.4951    1.0000 </r>
       <r>  -17.4678    1.0000 </r>
       <r>  -17.2292    1.0000 </r>
       <r>  -15.7458    1.0000 </r>
       <r>  -14.3345    1.0000 </r>
       <r>  -14.3098    1.0000 </r>
       <r>  -13.9629    1.0000 </r>
       <r>  -13.9383    1.0000 </r>
       <r>  -11.2748    1.0000 </r>
       <r>  -11.2437    1.0000 </r>
       <r>  -10.6091    1.0000 </r>
       <r>  -10.5869    1.0000 </r>
       <r>  -10.3434    1.0000 </r>
       <r>  -10.3112    1.0000 </r>
       <r>   -9.7878    1.0000 </r>
       <r>   -9.3484    1.0000 </r>
       <r>   -9.1485    1.0000 </r>
       <r>   -9.0948    1.0000 </r>
       <r>   -9.0815    1.0000 </r>
       <r>   -8.6457    1.0000 </r>
       <r>   -8.0731    1.0000 </r>
       <r>   -8.0494    1.0000 </r>
       <r>   -7.5400    1.0000 </r>
       <r>   -7.1662    1.0000 </r>
       <r>   -6.6626    1.0000 </r>
       <r>   -5.7592    1.0000 </r>
       <r>   -5.7352    1.0000 </r>
       <r>   -5.1984    1.0000 </r>
       <r>   -5.0595    1.0000 </r>
       <r>   -5.0345    1.0000 </r>
       <r>   -0.9699    0.0000 </r>
       <r>   -0.6028    0.0000 </r>
       <r>   -0.5670    0.0000 </r>
       <r>    0.0840    0.0000 </r>
       <r>    0.1209    0.0000 </r>
       <r>    1.1735    0.0000 </r>
       <r>    1.6817    0.0000 </r>
       <r>    1.9737    0.0000 </r>
       <r>    2.3060    0.0000 </r>
       <r>    2.4866    0.0000 </r>
      </set>
      <set comment="kpoint 10">
       <r>  -21.7752    1.0000 </r>
       <r>  -21.4030    1.0000 </r>
       <r>  -20.3027    1.0000 </r>
       <r>  -20.2914    1.0000 </r>
       <r>  -18.1636    1.0000 </r>
       <r>  -18.1542    1.0000 </r>
       <r>  -17.4865    1.0000 </r>
       <r>  -17.4776    1.0000 </r>
       <r>  -17.2238    1.0000 </r>
       <r>  -15.7585    1.0000 </r>
       <r>  -14.3268    1.0000 </r>
       <r>  -14.3123    1.0000 </r>
       <r>  -13.9553    1.0000 </r>
       <r>  -13.9395    1.0000 </r>
       <r>  -11.2687    1.0000 </r>
       <r>  -11.2551    1.0000 </r>
       <r>  -10.5915    1.0000 </r>
       <r>  -10.5731    1.0000 </r>
       <r>  -10.3387    1.0000 </r>
       <r>  -10.3238    1.0000 </r>
       <r>   -9.7875    1.0000 </r>
       <r>   -9.3476    1.0000 </r>
       <r>   -9.1332    1.0000 </r>
       <r>   -9.1154    1.0000 </r>
       <r>   -9.0990    1.0000 </r>
       <r>   -8.6626    1.0000 </r>
       <r>   -8.0674    1.0000 </r>
       <r>   -8.0588    1.0000 </r>
       <r>   -7.5587    1.0000 </r>
       <r>   -7.1495    1.0000 </r>
       <r>   -6.6397    1.0000 </r>
       <r>   -5.7535    1.0000 </r>
       <r>   -5.7442    1.0000 </r>
       <r>   -5.1867    1.0000 </r>
       <r>   -5.0530    1.0000 </r>
       <r>   -5.0417    1.0000 </r>
       <r>   -0.9921    0.0000 </r>
       <r>   -0.5911    0.0000 </r>
       <r>   -0.5740    0.0000 </r>
       <r>    0.0961    0.0000 </r>
       <r>    0.1143    0.0000 </r>
       <r>    1.1735    0.0000 </r>
       <r>    1.6817    0.0000 </r>
       <r>    1.9738    0.0000 </r>
       <r>    2.3060    0.0000 </r>
       <r>    2.4868    0.0000 </r>
      </set>
      <set comment="kpoint 11">
       <r>  -22.0954    1.0000 </r>
       <r>  -20.6163    1.0000 </r>
       <r>  -20.6060    1.0000 </r>
       <r>  -19.5318    1.0000 </r>
       <r>  -19.5080    1.0000 </r>
       <r>  -18.4605    1.0000 </r>
       <r>  -18.4493    1.0000 </r>
       <r>  -16.7800    1.0000 </r>
       <r>  -16.1532    1.0000 </r>
       <r>  -15.2578    1.0000 </r>
       <r>  -14.2451    1.0000 </r>
       <r>  -14.1692    1.0000 </r>
       <r>  -14.1369    1.0000 </r>
       <r>  -12.6158    1.0000 </r>
       <r>  -12.3190    1.0000 </r>
       <r>  -12.3189    1.0000 </r>
       <r>  -12.2588    1.0000 </r>
       <r>  -10.5022    1.0000 </r>
       <r>  -10.4616    1.0000 </r>
       <r>  -10.1685    1.0000 </r>
       <r>   -9.1807    1.0000 </r>
       <r>   -9.1550    1.0000 </r>
       <r>   -9.1413    1.0000 </r>
       <r>   -9.1095    1.0000 </r>
       <r>   -8.4306    1.0000 </r>
       <r>   -8.4227    1.0000 </r>
       <r>   -8.0999    1.0000 </r>
       <r>   -8.0607    1.0000 </r>
       <r>   -7.1995    1.0000 </r>
       <r>   -7.1760    1.0000 </r>
       <r>   -6.3820    1.0000 </r>
       <r>   -6.1573    1.0000 </r>
       <r>   -6.1118    1.0000 </r>
       <r>   -6.1051    1.0000 </r>
       <r>   -4.2658    1.0000 </r>
       <r>   -3.8861    1.0000 </r>
       <r>   -1.7283    0.0000 </r>
       <r>   -1.2529    0.0000 </r>
       <r>    0.2719    0.0000 </r>
       <r>    0.2920    0.0000 </r>
       <r>    0.7376    0.0000 </r>
       <r>    1.5327    0.0000 </r>
       <r>    1.8591    0.0000 </r>
       <r>    1.9861    0.0000 </r>
       <r>    2.0183    0.0000 </r>
       <r>    2.7774    0.0000 </r>
      </set>
      <set comment="kpoint 12">
       <r>  -22.0954    1.0000 </r>
       <r>  -20.6171    1.0000 </r>
       <r>  -20.6054    1.0000 </r>
       <r>  -19.5335    1.0000 </r>
       <r>  -19.5047    1.0000 </r>
       <r>  -18.4612    1.0000 </r>
       <r>  -18.4491    1.0000 </r>
       <r>  -16.7781    1.0000 </r>
       <r>  -16.1700    1.0000 </r>
       <r>  -15.2232    1.0000 </r>
       <r>  -14.2664    1.0000 </r>
       <r>  -14.1791    1.0000 </r>
       <r>  -14.1476    1.0000 </r>
       <r>  -12.5946    1.0000 </r>
       <r>  -12.3104    1.0000 </r>
       <r>  -12.2890    1.0000 </r>
       <r>  -12.2739    1.0000 </r>
       <r>  -10.5104    1.0000 </r>
       <r>  -10.4721    1.0000 </r>
       <r>  -10.1683    1.0000 </r>
       <r>   -9.1947    1.0000 </r>
       <r>   -9.1893    1.0000 </r>
       <r>   -9.1291    1.0000 </r>
       <r>   -9.1014    1.0000 </r>
       <r>   -8.4306    1.0000 </r>
       <r>   -8.4209    1.0000 </r>
       <r>   -8.0867    1.0000 </r>
       <r>   -8.0497    1.0000 </r>
       <r>   -7.2067    1.0000 </r>
       <r>   -7.1815    1.0000 </r>
       <r>   -6.4350    1.0000 </r>
       <r>   -6.1079    1.0000 </r>
       <r>   -6.1029    1.0000 </r>
       <r>   -6.0932    1.0000 </r>
       <r>   -4.2500    1.0000 </r>
       <r>   -3.9124    1.0000 </r>
       <r>   -1.6926    0.0000 </r>
       <r>   -1.2772    0.0000 </r>
       <r>    0.2517    0.0000 </r>
       <r>    0.2775    0.0000 </r>
       <r>    0.7376    0.0000 </r>
       <r>    1.5328    0.0000 </r>
       <r>    1.8591    0.0000 </r>
       <r>    2.0060    0.0000 </r>
       <r>    2.0380    0.0000 </r>
       <r>    2.7774    0.0000 </r>
      </set>
      <set comment="kpoint 13">
       <r>  -22.0954    1.0000 </r>
       <r>  -20.6117    1.0000 </r>
       <r>  -20.6107    1.0000 </r>
       <r>  -19.5200    1.0000 </r>
       <r>  -19.5192    1.0000 </r>
       <r>  -18.4551    1.0000 </r>
       <r>  -18.4549    1.0000 </r>
       <r>  -16.7784    1.0000 </r>
       <r>  -16.1621    1.0000 </r>
       <r>  -15.2404    1.0000 </r>
       <r>  -14.2606    1.0000 </r>
       <r>  -14.1652    1.0000 </r>
       <r>  -14.1467    1.0000 </r>
       <r>  -12.6049    1.0000 </r>
       <r>  -12.3143    1.0000 </r>
       <r>  -12.3071    1.0000 </r>
       <r>  -12.2641    1.0000 </r>
       <r>  -10.5010    1.0000 </r>
       <r>  -10.4718    1.0000 </r>
       <r>  -10.1684    1.0000 </r>
       <r>   -9.1824    1.0000 </r>
       <r>   -9.1749    1.0000 </r>
       <r>   -9.1355    1.0000 </r>
       <r>   -9.1076    1.0000 </r>
       <r>   -8.4281    1.0000 </r>
       <r>   -8.4243    1.0000 </r>
       <r>   -8.0926    1.0000 </r>
       <r>   -8.0562    1.0000 </r>
       <r>   -7.1922    1.0000 </r>
       <r>   -7.1897    1.0000 </r>
       <r>   -6.4106    1.0000 </r>
       <r>   -6.1280    1.0000 </r>
       <r>   -6.1110    1.0000 </r>
       <r>   -6.0980    1.0000 </r>
       <r>   -4.2576    1.0000 </r>
       <r>   -3.8995    1.0000 </r>
       <r>   -1.7103    0.0000 </r>
       <r>   -1.2655    0.0000 </r>
       <r>    0.2593    0.0000 </r>
       <r>    0.2875    0.0000 </r>
       <r>    0.7376    0.0000 </r>
       <r>    1.5328    0.0000 </r>
       <r>    1.8591    0.0000 </r>
       <r>    2.0075    0.0000 </r>
       <r>    2.0166    0.0000 </r>
       <r>    2.7774    0.0000 </r>
      </set>
      <set comment="kpoint 14">
       <r>  -21.8816    1.0000 </r>
       <r>  -21.1379    1.0000 </r>
       <r>  -20.7691    1.0000 </r>
       <r>  -19.6753    1.0000 </r>
       <r>  -18.9582    1.0000 </r>
       <r>  -17.9170    1.0000 </r>
       <r>  -17.5982    1.0000 </r>
       <r>  -17.5699    1.0000 </r>
       <r>  -16.6662    1.0000 </r>
       <r>  -15.2699    1.0000 </r>
       <r>  -15.2368    1.0000 </r>
       <r>  -14.6342    1.0000 </r>
       <r>  -13.7191    1.0000 </r>
       <r>  -12.8296    1.0000 </r>
       <r>  -11.9080    1.0000 </r>
       <r>  -11.6975    1.0000 </r>
       <r>  -11.3787    1.0000 </r>
       <r>  -10.0304    1.0000 </r>
       <r>   -9.9269    1.0000 </r>
       <r>   -9.9146    1.0000 </r>
       <r>   -9.7117    1.0000 </r>
       <r>   -9.6113    1.0000 </r>
       <r>   -9.2953    1.0000 </r>
       <r>   -9.2497    1.0000 </r>
       <r>   -9.0384    1.0000 </r>
       <r>   -8.6059    1.0000 </r>
       <r>   -8.2490    1.0000 </r>
       <r>   -7.5943    1.0000 </r>
       <r>   -7.3514    1.0000 </r>
       <r>   -7.1145    1.0000 </r>
       <r>   -6.5748    1.0000 </r>
       <r>   -6.5650    1.0000 </r>
       <r>   -5.5831    1.0000 </r>
       <r>   -5.3968    1.0000 </r>
       <r>   -5.0790    1.0000 </r>
       <r>   -4.4213    1.0000 </r>
       <r>   -1.3139    0.0000 </r>
       <r>   -0.6664    0.0000 </r>
       <r>   -0.4140    0.0000 </r>
       <r>   -0.2950    0.0000 </r>
       <r>    1.0282    0.0000 </r>
       <r>    1.2177    0.0000 </r>
       <r>    1.8268    0.0000 </r>
       <r>    2.0447    0.0000 </r>
       <r>    2.1570    0.0000 </r>
       <r>    2.3920    0.0000 </r>
      </set>
      <set comment="kpoint 15">
       <r>  -21.8818    1.0000 </r>
       <r>  -21.1380    1.0000 </r>
       <r>  -20.7691    1.0000 </r>
       <r>  -19.6745    1.0000 </r>
       <r>  -18.9576    1.0000 </r>
       <r>  -17.9165    1.0000 </r>
       <r>  -17.5944    1.0000 </r>
       <r>  -17.5725    1.0000 </r>
       <r>  -16.6758    1.0000 </r>
       <r>  -15.2577    1.0000 </r>
       <r>  -15.2324    1.0000 </r>
       <r>  -14.6443    1.0000 </r>
       <r>  -13.7404    1.0000 </r>
       <r>  -12.8088    1.0000 </r>
       <r>  -11.8857    1.0000 </r>
       <r>  -11.6747    1.0000 </r>
       <r>  -11.3994    1.0000 </r>
       <r>  -10.0565    1.0000 </r>
       <r>   -9.9260    1.0000 </r>
       <r>   -9.9141    1.0000 </r>
       <r>   -9.6988    1.0000 </r>
       <r>   -9.6393    1.0000 </r>
       <r>   -9.2902    1.0000 </r>
       <r>   -9.2505    1.0000 </r>
       <r>   -9.0380    1.0000 </r>
       <r>   -8.6062    1.0000 </r>
       <r>   -8.2476    1.0000 </r>
       <r>   -7.5838    1.0000 </r>
       <r>   -7.3557    1.0000 </r>
       <r>   -7.1579    1.0000 </r>
       <r>   -6.5723    1.0000 </r>
       <r>   -6.5285    1.0000 </r>
       <r>   -5.5728    1.0000 </r>
       <r>   -5.3850    1.0000 </r>
       <r>   -5.0670    1.0000 </r>
       <r>   -4.4458    1.0000 </r>
       <r>   -1.2766    0.0000 </r>
       <r>   -0.6863    0.0000 </r>
       <r>   -0.4398    0.0000 </r>
       <r>   -0.3138    0.0000 </r>
       <r>    1.0283    0.0000 </r>
       <r>    1.2379    0.0000 </r>
       <r>    1.8269    0.0000 </r>
       <r>    2.0446    0.0000 </r>
       <r>    2.1570    0.0000 </r>
       <r>    2.4073    0.0000 </r>
      </set>
      <set comment="kpoint 16">
       <r>  -21.8818    1.0000 </r>
       <r>  -21.1383    1.0000 </r>
       <r>  -20.7686    1.0000 </r>
       <r>  -19.6742    1.0000 </r>
       <r>  -18.9587    1.0000 </r>
       <r>  -17.9179    1.0000 </r>
       <r>  -17.5991    1.0000 </r>
       <r>  -17.5655    1.0000 </r>
       <r>  -16.6711    1.0000 </r>
       <r>  -15.2655    1.0000 </r>
       <r>  -15.2497    1.0000 </r>
       <r>  -14.6259    1.0000 </r>
       <r>  -13.7223    1.0000 </r>
       <r>  -12.8252    1.0000 </r>
       <r>  -11.9039    1.0000 </r>
       <r>  -11.6765    1.0000 </r>
       <r>  -11.3869    1.0000 </r>
       <r>  -10.0361    1.0000 </r>
       <r>   -9.9142    1.0000 </r>
       <r>   -9.8972    1.0000 </r>
       <r>   -9.7231    1.0000 </r>
       <r>   -9.6383    1.0000 </r>
       <r>   -9.2853    1.0000 </r>
       <r>   -9.2667    1.0000 </r>
       <r>   -9.0365    1.0000 </r>
       <r>   -8.6085    1.0000 </r>
       <r>   -8.2799    1.0000 </r>
       <r>   -7.5584    1.0000 </r>
       <r>   -7.3562    1.0000 </r>
       <r>   -7.1538    1.0000 </r>
       <r>   -6.5656    1.0000 </r>
       <r>   -6.5328    1.0000 </r>
       <r>   -5.5898    1.0000 </r>
       <r>   -5.3757    1.0000 </r>
       <r>   -5.0750    1.0000 </r>
       <r>   -4.4310    1.0000 </r>
       <r>   -1.2994    0.0000 </r>
       <r>   -0.7045    0.0000 </r>
       <r>   -0.4230    0.0000 </r>
       <r>   -0.2803    0.0000 </r>
       <r>    1.0283    0.0000 </r>
       <r>    1.2182    0.0000 </r>
       <r>    1.8269    0.0000 </r>
       <r>    2.0447    0.0000 </r>
       <r>    2.1570    0.0000 </r>
       <r>    2.4104    0.0000 </r>
      </set>
      <set comment="kpoint 17">
       <r>  -21.8818    1.0000 </r>
       <r>  -21.1383    1.0000 </r>
       <r>  -20.7686    1.0000 </r>
       <r>  -19.6743    1.0000 </r>
       <r>  -18.9578    1.0000 </r>
       <r>  -17.9173    1.0000 </r>
       <r>  -17.5957    1.0000 </r>
       <r>  -17.5696    1.0000 </r>
       <r>  -16.6754    1.0000 </r>
       <r>  -15.2697    1.0000 </r>
       <r>  -15.2317    1.0000 </r>
       <r>  -14.6353    1.0000 </r>
       <r>  -13.7358    1.0000 </r>
       <r>  -12.8131    1.0000 </r>
       <r>  -11.8896    1.0000 </r>
       <r>  -11.6672    1.0000 </r>
       <r>  -11.3991    1.0000 </r>
       <r>  -10.0501    1.0000 </r>
       <r>   -9.9140    1.0000 </r>
       <r>   -9.9098    1.0000 </r>
       <r>   -9.7108    1.0000 </r>
       <r>   -9.6467    1.0000 </r>
       <r>   -9.2832    1.0000 </r>
       <r>   -9.2633    1.0000 </r>
       <r>   -9.0369    1.0000 </r>
       <r>   -8.6077    1.0000 </r>
       <r>   -8.2683    1.0000 </r>
       <r>   -7.5631    1.0000 </r>
       <r>   -7.3576    1.0000 </r>
       <r>   -7.1691    1.0000 </r>
       <r>   -6.5701    1.0000 </r>
       <r>   -6.5169    1.0000 </r>
       <r>   -5.5807    1.0000 </r>
       <r>   -5.3746    1.0000 </r>
       <r>   -5.0688    1.0000 </r>
       <r>   -4.4439    1.0000 </r>
       <r>   -1.2797    0.0000 </r>
       <r>   -0.7054    0.0000 </r>
       <r>   -0.4338    0.0000 </r>
       <r>   -0.3005    0.0000 </r>
       <r>    1.0283    0.0000 </r>
       <r>    1.2314    0.0000 </r>
       <r>    1.8269    0.0000 </r>
       <r>    2.0447    0.0000 </r>
       <r>    2.1570    0.0000 </r>
       <r>    2.4147    0.0000 </r>
      </set>
      <set comment="kpoint 18">
       <r>  -21.8817    1.0000 </r>
       <r>  -21.1382    1.0000 </r>
       <r>  -20.7688    1.0000 </r>
       <r>  -19.6747    1.0000 </r>
       <r>  -18.9587    1.0000 </r>
       <r>  -17.9173    1.0000 </r>
       <r>  -17.5947    1.0000 </r>
       <r>  -17.5723    1.0000 </r>
       <r>  -16.6664    1.0000 </r>
       <r>  -15.2642    1.0000 </r>
       <r>  -15.2538    1.0000 </r>
       <r>  -14.6247    1.0000 </r>
       <r>  -13.7138    1.0000 </r>
       <r>  -12.8332    1.0000 </r>
       <r>  -11.9132    1.0000 </r>
       <r>  -11.6913    1.0000 </r>
       <r>  -11.3773    1.0000 </r>
       <r>  -10.0271    1.0000 </r>
       <r>   -9.9145    1.0000 </r>
       <r>   -9.9064    1.0000 </r>
       <r>   -9.7239    1.0000 </r>
       <r>   -9.6199    1.0000 </r>
       <r>   -9.2930    1.0000 </r>
       <r>   -9.2576    1.0000 </r>
       <r>   -9.0373    1.0000 </r>
       <r>   -8.6076    1.0000 </r>
       <r>   -8.2709    1.0000 </r>
       <r>   -7.5731    1.0000 </r>
       <r>   -7.3531    1.0000 </r>
       <r>   -7.1265    1.0000 </r>
       <r>   -6.5628    1.0000 </r>
       <r>   -6.5615    1.0000 </r>
       <r>   -5.5908    1.0000 </r>
       <r>   -5.3863    1.0000 </r>
       <r>   -5.0811    1.0000 </r>
       <r>   -4.4196    1.0000 </r>
       <r>   -1.3165    0.0000 </r>
       <r>   -0.6840    0.0000 </r>
       <r>   -0.4133    0.0000 </r>
       <r>   -0.2782    0.0000 </r>
       <r>    1.0282    0.0000 </r>
       <r>    1.2112    0.0000 </r>
       <r>    1.8268    0.0000 </r>
       <r>    2.0447    0.0000 </r>
       <r>    2.1570    0.0000 </r>
       <r>    2.4241    0.0000 </r>
      </set>
      <set comment="kpoint 19">
       <r>  -21.8817    1.0000 </r>
       <r>  -21.1377    1.0000 </r>
       <r>  -20.7693    1.0000 </r>
       <r>  -19.6750    1.0000 </r>
       <r>  -18.9580    1.0000 </r>
       <r>  -17.9168    1.0000 </r>
       <r>  -17.6014    1.0000 </r>
       <r>  -17.5659    1.0000 </r>
       <r>  -16.6714    1.0000 </r>
       <r>  -15.2516    1.0000 </r>
       <r>  -15.2411    1.0000 </r>
       <r>  -14.6444    1.0000 </r>
       <r>  -13.7319    1.0000 </r>
       <r>  -12.8176    1.0000 </r>
       <r>  -11.8939    1.0000 </r>
       <r>  -11.6904    1.0000 </r>
       <r>  -11.3891    1.0000 </r>
       <r>  -10.0451    1.0000 </r>
       <r>   -9.9343    1.0000 </r>
       <r>   -9.9144    1.0000 </r>
       <r>   -9.7006    1.0000 </r>
       <r>   -9.6208    1.0000 </r>
       <r>   -9.2957    1.0000 </r>
       <r>   -9.2449    1.0000 </r>
       <r>   -9.0388    1.0000 </r>
       <r>   -8.6053    1.0000 </r>
       <r>   -8.2374    1.0000 </r>
       <r>   -7.6002    1.0000 </r>
       <r>   -7.3524    1.0000 </r>
       <r>   -7.1308    1.0000 </r>
       <r>   -6.5699    1.0000 </r>
       <r>   -6.5575    1.0000 </r>
       <r>   -5.5743    1.0000 </r>
       <r>   -5.3966    1.0000 </r>
       <r>   -5.0712    1.0000 </r>
       <r>   -4.4346    1.0000 </r>
       <r>   -1.2938    0.0000 </r>
       <r>   -0.6677    0.0000 </r>
       <r>   -0.4306    0.0000 </r>
       <r>   -0.3094    0.0000 </r>
       <r>    1.0283    0.0000 </r>
       <r>    1.2311    0.0000 </r>
       <r>    1.8268    0.0000 </r>
       <r>    2.0446    0.0000 </r>
       <r>    2.1570    0.0000 </r>
       <r>    2.3958    0.0000 </r>
      </set>
      <set comment="kpoint 20">
       <r>  -21.5680    1.0000 </r>
       <r>  -21.5560    1.0000 </r>
       <r>  -20.8219    1.0000 </r>
       <r>  -19.7269    1.0000 </r>
       <r>  -18.3210    1.0000 </r>
       <r>  -18.2911    1.0000 </r>
       <r>  -17.3226    1.0000 </r>
       <r>  -17.2909    1.0000 </r>
       <r>  -16.9939    1.0000 </r>
       <r>  -15.9233    1.0000 </r>
       <r>  -15.0212    1.0000 </r>
       <r>  -15.0077    1.0000 </r>
       <r>  -13.2913    1.0000 </r>
       <r>  -13.2744    1.0000 </r>
       <r>  -11.3744    1.0000 </r>
       <r>  -10.9959    1.0000 </r>
       <r>  -10.9783    1.0000 </r>
       <r>  -10.5054    1.0000 </r>
       <r>  -10.4848    1.0000 </r>
       <r>   -9.8878    1.0000 </r>
       <r>   -9.6536    1.0000 </r>
       <r>   -9.5408    1.0000 </r>
       <r>   -9.5322    1.0000 </r>
       <r>   -9.3486    1.0000 </r>
       <r>   -8.6661    1.0000 </r>
       <r>   -8.3995    1.0000 </r>
       <r>   -8.1252    1.0000 </r>
       <r>   -8.0850    1.0000 </r>
       <r>   -7.4067    1.0000 </r>
       <r>   -7.0927    1.0000 </r>
       <r>   -7.0533    1.0000 </r>
       <r>   -5.8691    1.0000 </r>
       <r>   -5.8437    1.0000 </r>
       <r>   -5.0774    1.0000 </r>
       <r>   -5.0206    1.0000 </r>
       <r>   -4.9955    1.0000 </r>
       <r>   -1.0679    0.0000 </r>
       <r>   -0.8432    0.0000 </r>
       <r>   -0.8152    0.0000 </r>
       <r>    0.3985    0.0000 </r>
       <r>    0.4261    0.0000 </r>
       <r>    1.4634    0.0000 </r>
       <r>    1.4648    0.0000 </r>
       <r>    2.2670    0.0000 </r>
       <r>    2.2673    0.0000 </r>
       <r>    2.6038    0.0000 </r>
      </set>
      <set comment="kpoint 21">
       <r>  -21.5624    1.0000 </r>
       <r>  -21.5620    1.0000 </r>
       <r>  -20.8217    1.0000 </r>
       <r>  -19.7263    1.0000 </r>
       <r>  -18.3068    1.0000 </r>
       <r>  -18.3059    1.0000 </r>
       <r>  -17.3092    1.0000 </r>
       <r>  -17.3059    1.0000 </r>
       <r>  -16.9875    1.0000 </r>
       <r>  -15.9391    1.0000 </r>
       <r>  -15.0205    1.0000 </r>
       <r>  -14.9983    1.0000 </r>
       <r>  -13.2946    1.0000 </r>
       <r>  -13.2690    1.0000 </r>
       <r>  -11.3590    1.0000 </r>
       <r>  -11.0031    1.0000 </r>
       <r>  -10.9734    1.0000 </r>
       <r>  -10.5117    1.0000 </r>
       <r>  -10.4880    1.0000 </r>
       <r>   -9.9058    1.0000 </r>
       <r>   -9.6348    1.0000 </r>
       <r>   -9.5363    1.0000 </r>
       <r>   -9.5357    1.0000 </r>
       <r>   -9.3358    1.0000 </r>
       <r>   -8.6674    1.0000 </r>
       <r>   -8.4187    1.0000 </r>
       <r>   -8.1337    1.0000 </r>
       <r>   -8.1165    1.0000 </r>
       <r>   -7.4092    1.0000 </r>
       <r>   -7.0611    1.0000 </r>
       <r>   -7.0420    1.0000 </r>
       <r>   -5.8618    1.0000 </r>
       <r>   -5.8501    1.0000 </r>
       <r>   -5.0640    1.0000 </r>
       <r>   -5.0235    1.0000 </r>
       <r>   -5.0001    1.0000 </r>
       <r>   -1.0892    0.0000 </r>
       <r>   -0.8423    0.0000 </r>
       <r>   -0.8039    0.0000 </r>
       <r>    0.3972    0.0000 </r>
       <r>    0.4248    0.0000 </r>
       <r>    1.4641    0.0000 </r>
       <r>    1.4642    0.0000 </r>
       <r>    2.2672    0.0000 </r>
       <r>    2.2672    0.0000 </r>
       <r>    2.4843    0.0000 </r>
      </set>
      <set comment="kpoint 22">
       <r>  -21.5672    1.0000 </r>
       <r>  -21.5574    1.0000 </r>
       <r>  -20.8213    1.0000 </r>
       <r>  -19.7260    1.0000 </r>
       <r>  -18.3191    1.0000 </r>
       <r>  -18.2937    1.0000 </r>
       <r>  -17.3219    1.0000 </r>
       <r>  -17.2958    1.0000 </r>
       <r>  -16.9792    1.0000 </r>
       <r>  -15.9550    1.0000 </r>
       <r>  -15.0143    1.0000 </r>
       <r>  -14.9955    1.0000 </r>
       <r>  -13.2903    1.0000 </r>
       <r>  -13.2724    1.0000 </r>
       <r>  -11.3427    1.0000 </r>
       <r>  -10.9975    1.0000 </r>
       <r>  -10.9797    1.0000 </r>
       <r>  -10.5111    1.0000 </r>
       <r>  -10.4987    1.0000 </r>
       <r>   -9.9232    1.0000 </r>
       <r>   -9.6163    1.0000 </r>
       <r>   -9.5401    1.0000 </r>
       <r>   -9.5308    1.0000 </r>
       <r>   -9.3230    1.0000 </r>
       <r>   -8.6686    1.0000 </r>
       <r>   -8.4409    1.0000 </r>
       <r>   -8.1608    1.0000 </r>
       <r>   -8.1235    1.0000 </r>
       <r>   -7.4117    1.0000 </r>
       <r>   -7.0603    1.0000 </r>
       <r>   -7.0046    1.0000 </r>
       <r>   -5.8668    1.0000 </r>
       <r>   -5.8444    1.0000 </r>
       <r>   -5.0521    1.0000 </r>
       <r>   -5.0267    1.0000 </r>
       <r>   -5.0026    1.0000 </r>
       <r>   -1.1118    0.0000 </r>
       <r>   -0.8265    0.0000 </r>
       <r>   -0.8065    0.0000 </r>
       <r>    0.3999    0.0000 </r>
       <r>    0.4197    0.0000 </r>
       <r>    1.4636    0.0000 </r>
       <r>    1.4648    0.0000 </r>
       <r>    2.2670    0.0000 </r>
       <r>    2.2676    0.0000 </r>
       <r>    2.4858    0.0000 </r>
      </set>
      <set comment="kpoint 23">
       <r>  -21.6153    1.0000 </r>
       <r>  -21.2489    1.0000 </r>
       <r>  -21.2389    1.0000 </r>
       <r>  -19.0728    1.0000 </r>
       <r>  -19.0484    1.0000 </r>
       <r>  -18.3553    1.0000 </r>
       <r>  -17.0941    1.0000 </r>
       <r>  -17.0889    1.0000 </r>
       <r>  -16.7035    1.0000 </r>
       <r>  -15.6932    1.0000 </r>
       <r>  -15.6191    1.0000 </r>
       <r>  -15.5955    1.0000 </r>
       <r>  -12.9049    1.0000 </r>
       <r>  -12.2787    1.0000 </r>
       <r>  -12.2682    1.0000 </r>
       <r>  -11.3689    1.0000 </r>
       <r>  -10.5565    1.0000 </r>
       <r>  -10.5460    1.0000 </r>
       <r>  -10.5201    1.0000 </r>
       <r>   -9.8333    1.0000 </r>
       <r>   -9.8179    1.0000 </r>
       <r>   -9.5993    1.0000 </r>
       <r>   -9.1653    1.0000 </r>
       <r>   -9.1565    1.0000 </r>
       <r>   -8.8488    1.0000 </r>
       <r>   -8.8033    1.0000 </r>
       <r>   -7.8613    1.0000 </r>
       <r>   -7.7069    1.0000 </r>
       <r>   -7.6542    1.0000 </r>
       <r>   -7.1053    1.0000 </r>
       <r>   -6.6742    1.0000 </r>
       <r>   -6.6511    1.0000 </r>
       <r>   -5.8981    1.0000 </r>
       <r>   -5.0188    1.0000 </r>
       <r>   -5.0054    1.0000 </r>
       <r>   -4.6592    1.0000 </r>
       <r>   -1.2489    0.0000 </r>
       <r>   -1.0246    0.0000 </r>
       <r>   -1.0017    0.0000 </r>
       <r>    0.5397    0.0000 </r>
       <r>    1.3916    0.0000 </r>
       <r>    1.4624    0.0000 </r>
       <r>    1.4891    0.0000 </r>
       <r>    1.8996    0.0000 </r>
       <r>    1.9008    0.0000 </r>
       <r>    2.1939    0.0000 </r>
      </set>
      <set comment="kpoint 24">
       <r>  -21.6155    1.0000 </r>
       <r>  -21.2497    1.0000 </r>
       <r>  -21.2378    1.0000 </r>
       <r>  -19.0746    1.0000 </r>
       <r>  -19.0454    1.0000 </r>
       <r>  -18.3561    1.0000 </r>
       <r>  -17.0960    1.0000 </r>
       <r>  -17.0784    1.0000 </r>
       <r>  -16.7189    1.0000 </r>
       <r>  -15.6615    1.0000 </r>
       <r>  -15.6336    1.0000 </r>
       <r>  -15.6063    1.0000 </r>
       <r>  -12.9314    1.0000 </r>
       <r>  -12.2653    1.0000 </r>
       <r>  -12.2417    1.0000 </r>
       <r>  -11.3393    1.0000 </r>
       <r>  -10.5718    1.0000 </r>
       <r>  -10.5639    1.0000 </r>
       <r>  -10.5548    1.0000 </r>
       <r>   -9.8255    1.0000 </r>
       <r>   -9.8014    1.0000 </r>
       <r>   -9.5982    1.0000 </r>
       <r>   -9.1658    1.0000 </r>
       <r>   -9.1569    1.0000 </r>
       <r>   -8.8402    1.0000 </r>
       <r>   -8.7963    1.0000 </r>
       <r>   -7.9067    1.0000 </r>
       <r>   -7.7093    1.0000 </r>
       <r>   -7.6690    1.0000 </r>
       <r>   -7.0561    1.0000 </r>
       <r>   -6.6799    1.0000 </r>
       <r>   -6.6547    1.0000 </r>
       <r>   -5.8890    1.0000 </r>
       <r>   -5.0094    1.0000 </r>
       <r>   -4.9874    1.0000 </r>
       <r>   -4.6862    1.0000 </r>
       <r>   -1.2069    0.0000 </r>
       <r>   -1.0499    0.0000 </r>
       <r>   -1.0214    0.0000 </r>
       <r>    0.5173    0.0000 </r>
       <r>    1.3918    0.0000 </r>
       <r>    1.4744    0.0000 </r>
       <r>    1.5052    0.0000 </r>
       <r>    1.8993    0.0000 </r>
       <r>    1.9008    0.0000 </r>
       <r>    2.1941    0.0000 </r>
      </set>
      <set comment="kpoint 25">
       <r>  -21.6155    1.0000 </r>
       <r>  -21.2441    1.0000 </r>
       <r>  -21.2435    1.0000 </r>
       <r>  -19.0612    1.0000 </r>
       <r>  -19.0599    1.0000 </r>
       <r>  -18.3554    1.0000 </r>
       <r>  -17.0935    1.0000 </r>
       <r>  -17.0851    1.0000 </r>
       <r>  -16.7111    1.0000 </r>
       <r>  -15.6771    1.0000 </r>
       <r>  -15.6265    1.0000 </r>
       <r>  -15.6012    1.0000 </r>
       <r>  -12.9183    1.0000 </r>
       <r>  -12.2741    1.0000 </r>
       <r>  -12.2531    1.0000 </r>
       <r>  -11.3543    1.0000 </r>
       <r>  -10.5627    1.0000 </r>
       <r>  -10.5558    1.0000 </r>
       <r>  -10.5371    1.0000 </r>
       <r>   -9.8315    1.0000 </r>
       <r>   -9.8079    1.0000 </r>
       <r>   -9.5988    1.0000 </r>
       <r>   -9.1620    1.0000 </r>
       <r>   -9.1601    1.0000 </r>
       <r>   -8.8445    1.0000 </r>
       <r>   -8.7995    1.0000 </r>
       <r>   -7.8846    1.0000 </r>
       <r>   -7.7096    1.0000 </r>
       <r>   -7.6605    1.0000 </r>
       <r>   -7.0801    1.0000 </r>
       <r>   -6.6681    1.0000 </r>
       <r>   -6.6621    1.0000 </r>
       <r>   -5.8935    1.0000 </r>
       <r>   -5.0174    1.0000 </r>
       <r>   -4.9930    1.0000 </r>
       <r>   -4.6727    1.0000 </r>
       <r>   -1.2282    0.0000 </r>
       <r>   -1.0442    0.0000 </r>
       <r>   -1.0044    0.0000 </r>
       <r>    0.5286    0.0000 </r>
       <r>    1.3917    0.0000 </r>
       <r>    1.4735    0.0000 </r>
       <r>    1.4921    0.0000 </r>
       <r>    1.9000    0.0000 </r>
       <r>    1.9002    0.0000 </r>
       <r>    2.1940    0.0000 </r>
      </set>
     </set>
    </set>
   </array>
  </eigenvalues>
  <separator name="orbital magnetization" >
   <v name="MAGDIPOLOUT">      0.00000000      0.00000000      0.00000000</v>
  </separator>
  <dos>
   <i name="efermi">     -2.75542943 </i>
   <total>
    <array>
     <dimension dim="1">gridpoints</dimension>
     <dimension dim="2">spin</dimension>
     <field>energy</field>
     <field>total</field>
     <field>integrated</field>
     <set>
      <set comment="spin 1">
       <r>   -23.5114     0.0000     0.0000 </r>
       <r>   -23.4193     0.0000     0.0000 </r>
       <r>   -23.3273     0.0000     0.0000 </r>
       <r>   -23.2352     0.0000     0.0000 </r>
       <r>   -23.1431     0.0000     0.0000 </r>
       <r>   -23.0511     0.0000     0.0000 </r>
       <r>   -22.9590     0.0000     0.0000 </r>
       <r>   -22.8670     0.0000     0.0000 </r>
       <r>   -22.7749     0.0000     0.0000 </r>
       <r>   -22.6828     0.0000     0.0000 </r>
       <r>   -22.5908     0.0000     0.0000 </r>
       <r>   -22.4987     0.0000     0.0000 </r>
       <r>   -22.4067     0.0000     0.0000 </r>
       <r>   -22.3146     0.0236     0.0022 </r>
       <r>   -22.2225     1.1018     0.1036 </r>
       <r>   -22.1305     2.3659     0.3214 </r>
       <r>   -22.0384     3.5655     0.6496 </r>
       <r>   -21.9464     1.5379     0.7912 </r>
       <r>   -21.8543     4.0188     1.1612 </r>
       <r>   -21.7622     2.8374     1.4224 </r>
       <r>   -21.6702     1.1180     1.5253 </r>
       <r>   -21.5781     3.8502     1.8798 </r>
       <r>   -21.4861     3.9035     2.2391 </r>
       <r>   -21.3940     1.6546     2.3914 </r>
       <r>   -21.3019     1.3365     2.5145 </r>
       <r>   -21.2099     4.2576     2.9064 </r>
       <r>   -21.1178     4.6049     3.3304 </r>
       <r>   -21.0258     1.5129     3.4696 </r>
       <r>   -20.9337     1.1234     3.5731 </r>
       <r>   -20.8416     2.3777     3.7920 </r>
       <r>   -20.7496     5.5271     4.3008 </r>
       <r>   -20.6575     2.1209     4.4960 </r>
       <r>   -20.5655     4.2789     4.8899 </r>
       <r>   -20.4734     0.5307     4.9388 </r>
       <r>   -20.3813     0.5415     4.9887 </r>
       <r>   -20.2893     5.1535     5.4631 </r>
       <r>   -20.1972     4.6782     5.8938 </r>
       <r>   -20.1052     2.8877     6.1596 </r>
       <r>   -20.0131     1.1897     6.2691 </r>
       <r>   -19.9210     3.9549     6.6332 </r>
       <r>   -19.8290     0.2206     6.6535 </r>
       <r>   -19.7369     1.3635     6.7790 </r>
       <r>   -19.6449     7.5651     7.4755 </r>
       <r>   -19.5528     2.6829     7.7225 </r>
       <r>   -19.4607     4.0470     8.0950 </r>
       <r>   -19.3687     0.3069     8.1233 </r>
       <r>   -19.2766     1.8446     8.2931 </r>
       <r>   -19.1846     3.3826     8.6045 </r>
       <r>   -19.0925     1.1117     8.7069 </r>
       <r>   -19.0004     4.6385     9.1339 </r>
       <r>   -18.9084     5.8109     9.6688 </r>
       <r>   -18.8163     2.0602     9.8585 </r>
       <r>   -18.7243     4.0423    10.2306 </r>
       <r>   -18.6322     1.0399    10.3264 </r>
       <r>   -18.5401     0.0471    10.3307 </r>
       <r>   -18.4481     3.0364    10.6102 </r>
       <r>   -18.3560     4.0214    10.9804 </r>
       <r>   -18.2640     5.5169    11.4883 </r>
       <r>   -18.1719     2.5842    11.7262 </r>
       <r>   -18.0798     4.1822    12.1112 </r>
       <r>   -17.9878     1.9725    12.2928 </r>
       <r>   -17.8957     3.7922    12.6419 </r>
       <r>   -17.8037     1.4474    12.7752 </r>
       <r>   -17.7116     0.0070    12.7758 </r>
       <r>   -17.6195     1.8200    12.9434 </r>
       <r>   -17.5275     8.6009    13.7352 </r>
       <r>   -17.4354     4.9906    14.1946 </r>
       <r>   -17.3434     1.4521    14.3283 </r>
       <r>   -17.2513     4.7561    14.7661 </r>
       <r>   -17.1593     2.3855    14.9857 </r>
       <r>   -17.0672     3.8581    15.3409 </r>
       <r>   -16.9751     3.0639    15.6230 </r>
       <r>   -16.8831     0.9915    15.7143 </r>
       <r>   -16.7910     1.5640    15.8582 </r>
       <r>   -16.6990     8.6767    16.6570 </r>
       <r>   -16.6069     5.5264    17.1658 </r>
       <r>   -16.5148     0.1946    17.1837 </r>
       <r>   -16.4228     0.0000    17.1837 </r>
       <r>   -16.3307     0.0000    17.1837 </r>
       <r>   -16.2387     0.0435    17.1877 </r>
       <r>   -16.1466     1.7207    17.3461 </r>
       <r>   -16.0545     1.1758    17.4543 </r>
       <r>   -15.9625     4.7823    17.8946 </r>
       <r>   -15.8704     2.8276    18.1549 </r>
       <r>   -15.7784     0.6020    18.2103 </r>
       <r>   -15.6863     3.2343    18.5081 </r>
       <r>   -15.5942     5.2385    18.9903 </r>
       <r>   -15.5022     1.6488    19.1421 </r>
       <r>   -15.4101     0.0756    19.1491 </r>
       <r>   -15.3181     1.6893    19.3046 </r>
       <r>   -15.2260     9.7595    20.2030 </r>
       <r>   -15.1339     3.5443    20.5293 </r>
       <r>   -15.0419     1.0262    20.6238 </r>
       <r>   -14.9498     4.8937    21.0743 </r>
       <r>   -14.8578     4.3838    21.4779 </r>
       <r>   -14.7657     1.3709    21.6041 </r>
       <r>   -14.6736     2.8304    21.8647 </r>
       <r>   -14.5816     8.3965    22.6376 </r>
       <r>   -14.4895     1.0535    22.7346 </r>
       <r>   -14.3975     0.1090    22.7447 </r>
       <r>   -14.3054     3.7504    23.0899 </r>
       <r>   -14.2133     4.1976    23.4764 </r>
       <r>   -14.1213     4.3238    23.8744 </r>
       <r>   -14.0292     1.0054    23.9670 </r>
       <r>   -13.9372     3.3429    24.2747 </r>
       <r>   -13.8451     1.8859    24.4483 </r>
       <r>   -13.7530     1.2854    24.5667 </r>
       <r>   -13.6610     3.9637    24.9316 </r>
       <r>   -13.5689     2.3338    25.1464 </r>
       <r>   -13.4769     4.2862    25.5410 </r>
       <r>   -13.3848     1.4514    25.6746 </r>
       <r>   -13.2927     2.4526    25.9004 </r>
       <r>   -13.2007     3.6648    26.2378 </r>
       <r>   -13.1086     0.0782    26.2450 </r>
       <r>   -13.0166     0.9014    26.3279 </r>
       <r>   -12.9245     9.2081    27.1756 </r>
       <r>   -12.8324     5.1795    27.6525 </r>
       <r>   -12.7404     3.2619    27.9527 </r>
       <r>   -12.6483     0.3827    27.9880 </r>
       <r>   -12.5563     2.1084    28.1821 </r>
       <r>   -12.4642     0.2779    28.2077 </r>
       <r>   -12.3721     1.6252    28.3573 </r>
       <r>   -12.2801     7.8568    29.0806 </r>
       <r>   -12.1880     8.6973    29.8812 </r>
       <r>   -12.0960     3.0187    30.1591 </r>
       <r>   -12.0039     0.0561    30.1643 </r>
       <r>   -11.9118     1.9243    30.3415 </r>
       <r>   -11.8198     3.3654    30.6513 </r>
       <r>   -11.7277     3.7031    30.9922 </r>
       <r>   -11.6357     6.4013    31.5815 </r>
       <r>   -11.5436     0.5555    31.6326 </r>
       <r>   -11.4515     0.2506    31.6557 </r>
       <r>   -11.3595     6.4384    32.2484 </r>
       <r>   -11.2674     6.0822    32.8083 </r>
       <r>   -11.1754     3.3861    33.1201 </r>
       <r>   -11.0833     5.4824    33.6248 </r>
       <r>   -10.9913     4.7625    34.0632 </r>
       <r>   -10.8992     2.8166    34.3225 </r>
       <r>   -10.8071     0.0438    34.3265 </r>
       <r>   -10.7151     0.0065    34.3271 </r>
       <r>   -10.6230     1.6205    34.4763 </r>
       <r>   -10.5310    10.9289    35.4824 </r>
       <r>   -10.4389    10.4945    36.4485 </r>
       <r>   -10.3468     2.9780    36.7227 </r>
       <r>   -10.2548     5.8944    37.2653 </r>
       <r>   -10.1627     2.0801    37.4568 </r>
       <r>   -10.0707     4.3474    37.8570 </r>
       <r>    -9.9786     4.9405    38.3119 </r>
       <r>    -9.8865    10.7577    39.3022 </r>
       <r>    -9.7945     9.9908    40.2220 </r>
       <r>    -9.7024     6.3104    40.8029 </r>
       <r>    -9.6104     8.6456    41.5988 </r>
       <r>    -9.5183     8.9886    42.4263 </r>
       <r>    -9.4262     5.4422    42.9273 </r>
       <r>    -9.3342     3.9108    43.2873 </r>
       <r>    -9.2421    10.1179    44.2188 </r>
       <r>    -9.1501    12.2735    45.3487 </r>
       <r>    -9.0580    14.5832    46.6912 </r>
       <r>    -8.9659     6.9593    47.3319 </r>
       <r>    -8.8739     3.3010    47.6358 </r>
       <r>    -8.7818    12.0409    48.7442 </r>
       <r>    -8.6898     6.9892    49.3877 </r>
       <r>    -8.5977     7.4447    50.0730 </r>
       <r>    -8.5056     7.0489    50.7219 </r>
       <r>    -8.4136     8.0711    51.4650 </r>
       <r>    -8.3215     3.4014    51.7781 </r>
       <r>    -8.2295     3.9290    52.1398 </r>
       <r>    -8.1374     5.7251    52.6669 </r>
       <r>    -8.0453    13.4634    53.9063 </r>
       <r>    -7.9533     5.5020    54.4128 </r>
       <r>    -7.8612     4.9030    54.8642 </r>
       <r>    -7.7692     1.2709    54.9812 </r>
       <r>    -7.6771     8.2597    55.7416 </r>
       <r>    -7.5850     7.1379    56.3987 </r>
       <r>    -7.4930     5.0517    56.8637 </r>
       <r>    -7.4009     3.0337    57.1430 </r>
       <r>    -7.3089     7.3045    57.8155 </r>
       <r>    -7.2168     2.4097    58.0373 </r>
       <r>    -7.1247     9.8636    58.9453 </r>
       <r>    -7.0327     7.6338    59.6481 </r>
       <r>    -6.9406     3.6683    59.9858 </r>
       <r>    -6.8486     3.5940    60.3167 </r>
       <r>    -6.7565     0.1662    60.3320 </r>
       <r>    -6.6644     4.3527    60.7327 </r>
       <r>    -6.5724    10.5023    61.6995 </r>
       <r>    -6.4803     8.7755    62.5074 </r>
       <r>    -6.3883     4.1362    62.8882 </r>
       <r>    -6.2962     4.0868    63.2644 </r>
       <r>    -6.2041     1.7222    63.4229 </r>
       <r>    -6.1121     4.9119    63.8751 </r>
       <r>    -6.0200     5.0273    64.3379 </r>
       <r>    -5.9280     2.7208    64.5884 </r>
       <r>    -5.8359     7.8997    65.3156 </r>
       <r>    -5.7438     7.1410    65.9730 </r>
       <r>    -5.6518     3.5103    66.2962 </r>
       <r>    -5.5597     3.7749    66.6437 </r>
       <r>    -5.4677     1.4932    66.7812 </r>
       <r>    -5.3756     3.1856    67.0744 </r>
       <r>    -5.2835     2.0885    67.2667 </r>
       <r>    -5.1915     1.5307    67.4076 </r>
       <r>    -5.0994     3.2832    67.7099 </r>
       <r>    -5.0074    15.4884    69.1357 </r>
       <r>    -4.9153     6.2149    69.7079 </r>
       <r>    -4.8233     0.0698    69.7143 </r>
       <r>    -4.7312     0.1522    69.7283 </r>
       <r>    -4.6391     2.0225    69.9145 </r>
       <r>    -4.5471     0.4894    69.9595 </r>
       <r>    -4.4550     1.4446    70.0925 </r>
       <r>    -4.3630     3.9337    70.4547 </r>
       <r>    -4.2709     5.0339    70.9181 </r>
       <r>    -4.1788     2.8452    71.1800 </r>
       <r>    -4.0868     0.0397    71.1837 </r>
       <r>    -3.9947     0.0129    71.1849 </r>
       <r>    -3.9027     1.2226    71.2974 </r>
       <r>    -3.8106     1.4031    71.4266 </r>
       <r>    -3.7185     0.0216    71.4286 </r>
       <r>    -3.6265     0.0171    71.4301 </r>
       <r>    -3.5344     2.2026    71.6329 </r>
       <r>    -3.4424     3.0443    71.9132 </r>
       <r>    -3.3503     0.0564    71.9184 </r>
       <r>    -3.2582     0.0000    71.9184 </r>
       <r>    -3.1662     0.0000    71.9184 </r>
       <r>    -3.0741     0.0000    71.9184 </r>
       <r>    -2.9821     0.0000    71.9184 </r>
       <r>    -2.8900     0.0006    71.9184 </r>
       <r>    -2.7979     0.2591    71.9423 </r>
       <r>    -2.7059     1.3142    72.0633 </r>
       <r>    -2.6138     0.1993    72.0816 </r>
       <r>    -2.5218     0.0003    72.0816 </r>
       <r>    -2.4297     0.0000    72.0816 </r>
       <r>    -2.3376     0.0000    72.0816 </r>
       <r>    -2.2456     0.0000    72.0816 </r>
       <r>    -2.1535     0.0001    72.0816 </r>
       <r>    -2.0615     0.3331    72.1123 </r>
       <r>    -1.9694     4.0662    72.4866 </r>
       <r>    -1.8773     0.9194    72.5713 </r>
       <r>    -1.7853     0.0679    72.5775 </r>
       <r>    -1.6932     1.7228    72.7361 </r>
       <r>    -1.6012     0.8657    72.8158 </r>
       <r>    -1.5091     0.0053    72.8163 </r>
       <r>    -1.4170     0.0051    72.8168 </r>
       <r>    -1.3250     2.0752    73.0078 </r>
       <r>    -1.2329    11.1686    74.0360 </r>
       <r>    -1.1409     2.9482    74.3074 </r>
       <r>    -1.0488     3.5170    74.6312 </r>
       <r>    -0.9567     5.6873    75.1548 </r>
       <r>    -0.8647     1.9443    75.3338 </r>
       <r>    -0.7726     4.1242    75.7134 </r>
       <r>    -0.6806     3.4196    76.0282 </r>
       <r>    -0.5885     4.7669    76.4671 </r>
       <r>    -0.4964     3.0018    76.7434 </r>
       <r>    -0.4044     3.7443    77.0881 </r>
       <r>    -0.3123     3.3281    77.3945 </r>
       <r>    -0.2203     5.1507    77.8687 </r>
       <r>    -0.1282     0.9781    77.9587 </r>
       <r>    -0.0361     0.0056    77.9592 </r>
       <r>     0.0559     0.5739    78.0121 </r>
       <r>     0.1480     4.1428    78.3935 </r>
       <r>     0.2400     1.6241    78.5430 </r>
       <r>     0.3321     4.0660    78.9173 </r>
       <r>     0.4242     3.6249    79.2510 </r>
       <r>     0.5162     3.1415    79.5402 </r>
       <r>     0.6083     3.6445    79.8757 </r>
       <r>     0.7003     1.3461    79.9996 </r>
       <r>     0.7924     5.8104    80.5345 </r>
       <r>     0.8845     5.9152    81.0791 </r>
       <r>     0.9765     1.5092    81.2180 </r>
       <r>     1.0686     4.2749    81.6116 </r>
       <r>     1.1606     1.8389    81.7808 </r>
       <r>     1.2527     5.6254    82.2987 </r>
       <r>     1.3447     2.1311    82.4949 </r>
       <r>     1.4368     7.0015    83.1395 </r>
       <r>     1.5289    13.8633    84.4157 </r>
       <r>     1.6209     4.5962    84.8388 </r>
       <r>     1.7130     4.6541    85.2673 </r>
       <r>     1.8050     3.3583    85.5765 </r>
       <r>     1.8971     8.8025    86.3868 </r>
       <r>     1.9892     8.9293    87.2088 </r>
       <r>     2.0812     9.1874    88.0546 </r>
       <r>     2.1733     6.9373    88.6933 </r>
       <r>     2.2653     6.8832    89.3270 </r>
       <r>     2.3574     7.3250    90.0013 </r>
       <r>     2.4495     5.7369    90.5294 </r>
       <r>     2.5415     4.2390    90.9197 </r>
       <r>     2.6336     2.3612    91.1370 </r>
       <r>     2.7256     2.1975    91.3393 </r>
       <r>     2.8177     4.5460    91.7578 </r>
       <r>     2.9098     2.5007    91.9881 </r>
       <r>     3.0018     0.1298    92.0000 </r>
       <r>     3.0939     0.0000    92.0000 </r>
       <r>     3.1859     0.0000    92.0000 </r>
       <r>     3.2780     0.0000    92.0000 </r>
       <r>     3.3701     0.0000    92.0000 </r>
       <r>     3.4621     0.0000    92.0000 </r>
       <r>     3.5542     0.0000    92.0000 </r>
       <r>     3.6462     0.0000    92.0000 </r>
       <r>     3.7383     0.0000    92.0000 </r>
       <r>     3.8304     0.0000    92.0000 </r>
       <r>     3.9224     0.0000    92.0000 </r>
       <r>     4.0145     0.0000    92.0000 </r>
       <r>     4.1065     0.0000    92.0000 </r>
      </set>
     </set>
    </array>
   </total>
  </dos>
 </calculation>
 <structure name="finalpos" >
  <crystal>
   <varray name="basis" >
    <v>       7.40170591       0.00000000       0.00000000 </v>
    <v>      -3.70085295       6.41006527       0.00000000 </v>
    <v>       0.00000000       0.00000000      20.00000000 </v>
   </varray>
   <i name="volume">    948.90835877 </i>
   <varray name="rec_basis" >
    <v>       0.13510399       0.07800233       0.00000000 </v>
    <v>       0.00000000       0.15600465       0.00000000 </v>
    <v>       0.00000000       0.00000000       0.05000000 </v>
   </varray>
  </crystal>
  <varray name="positions" >
   <v>       0.99864896       0.00000000       0.50000000 </v>
   <v>       0.33333333       0.00000000       0.50000000 </v>
   <v>       0.66666667       0.00000000       0.50000000 </v>
   <v>       0.00000000       0.33333333       0.50000000 </v>
   <v>       0.33333333       0.33333333       0.50000000 </v>
   <v>       0.66666667       0.33333333       0.50000000 </v>
   <v>       0.00000000       0.66666667       0.50000000 </v>
   <v>       0.33333333       0.66666667       0.50000000 </v>
   <v>       0.66666667       0.66666667       0.50000000 </v>
   <v>       0.22357326       0.11111111       0.50000000 </v>
   <v>       0.55555556       0.11111111       0.50000000 </v>
   <v>       0.88888889       0.11111111       0.50000000 </v>
   <v>       0.22222222       0.44444444       0.50000000 </v>
   <v>       0.55555556       0.44444444       0.50000000 </v>
   <v>       0.88888889       0.44444444       0.50000000 </v>
   <v>       0.22222222       0.77777778       0.50000000 </v>
   <v>       0.55555556       0.77777778       0.50000000 </v>
   <v>       0.88888889       0.77777778       0.50000000 </v>
  </varray>
 </structure>
</modeling>
