<?xml version="1.0" encoding="ISO-8859-1"?>
<modeling>
 <generator>
  <i name="program" type="string">vasp </i>
  <i name="version" type="string">6.4.1  </i>
  <i name="subversion" type="string">05Apr23 (build Feb 12 2025 00:37:39) complex                          parallel </i>
  <i name="platform" type="string">LinuxIFC </i>
  <i name="date" type="string">2025 02 14 </i>
  <i name="time" type="string">04:52:42 </i>
 </generator>
 <incar>
  <i type="string" name="SYSTEM">SCF</i>
  <i type="int" name="ISTART">     0</i>
  <i type="int" name="ICHARG">     2</i>
  <i type="int" name="NELM">    60</i>
  <i type="int" name="NELMIN">     6</i>
  <i name="EDIFF">      0.00000100</i>
  <i name="EDIFFG">     -0.00000100</i>
  <i name="ENCUT">    600.00000000</i>
  <i type="string" name="LREAL">Auto</i>
  <i type="int" name="ISMEAR">     0</i>
  <i name="SIGMA">      0.05000000</i>
  <i type="logical" name="LWAVE"> F  </i>
  <i type="logical" name="LCHARG"> F  </i>
 </incar>
 <primitive_cell>
  <structure name="primitive_cell" >
   <crystal>
    <varray name="basis" >
     <v>       7.40170591       0.00000000       0.00000000 </v>
     <v>      -3.70085295       6.41006527       0.00000000 </v>
     <v>       0.00000000       0.00000000      20.00000000 </v>
    </varray>
    <i name="volume">    948.90835877 </i>
    <varray name="rec_basis" >
     <v>       0.13510399       0.07800233       0.00000000 </v>
     <v>       0.00000000       0.15600465       0.00000000 </v>
     <v>       0.00000000       0.00000000       0.05000000 </v>
    </varray>
   </crystal>
   <varray name="positions" >
    <v>       0.99921998       0.99843995       0.50000000 </v>
    <v>       0.33468437       0.00000000       0.50000000 </v>
    <v>       0.66666667       0.00000000       0.50000000 </v>
    <v>       1.00000000       0.33333333       0.50000000 </v>
    <v>       0.33333333       0.33333333       0.50000000 </v>
    <v>       0.66666667       0.33333333       0.50000000 </v>
    <v>       1.00000000       0.66666667       0.50000000 </v>
    <v>       0.33333333       0.66666667       0.50000000 </v>
    <v>       0.66666667       0.66666667       0.50000000 </v>
    <v>       0.22222222       0.11111111       0.50000000 </v>
    <v>       0.55555556       0.11111111       0.50000000 </v>
    <v>       0.88888889       0.11111111       0.50000000 </v>
    <v>       0.22222222       0.44444444       0.50000000 </v>
    <v>       0.55555556       0.44444444       0.50000000 </v>
    <v>       0.88888889       0.44444444       0.50000000 </v>
    <v>       0.22222222       0.77777778       0.50000000 </v>
    <v>       0.55555556       0.77777778       0.50000000 </v>
    <v>       0.88888889       0.77777778       0.50000000 </v>
   </varray>
  </structure>
  <varray name="primitive_index" >
   <v type="int" >        1 </v>
   <v type="int" >        2 </v>
   <v type="int" >        3 </v>
   <v type="int" >        4 </v>
   <v type="int" >        5 </v>
   <v type="int" >        6 </v>
   <v type="int" >        7 </v>
   <v type="int" >        8 </v>
   <v type="int" >        9 </v>
   <v type="int" >       10 </v>
   <v type="int" >       11 </v>
   <v type="int" >       12 </v>
   <v type="int" >       13 </v>
   <v type="int" >       14 </v>
   <v type="int" >       15 </v>
   <v type="int" >       16 </v>
   <v type="int" >       17 </v>
   <v type="int" >       18 </v>
  </varray>
 </primitive_cell>
 <kpoints>
  <generation param="Gamma">
   <v type="int" name="divisions">       7        7        1 </v>
   <v name="usershift">      0.00000000       0.00000000       0.00000000 </v>
   <v name="genvec1">      0.14285714       0.00000000       0.00000000 </v>
   <v name="genvec2">      0.00000000       0.14285714       0.00000000 </v>
   <v name="genvec3">      0.00000000       0.00000000       1.00000000 </v>
   <v name="shift">      0.00000000       0.00000000       0.00000000 </v>
  </generation>
  <varray name="kpointlist" >
   <v>       0.00000000       0.00000000       0.00000000 </v>
   <v>       0.14285714       0.00000000       0.00000000 </v>
   <v>       0.00000000       0.14285714       0.00000000 </v>
   <v>      -0.14285714       0.14285714       0.00000000 </v>
   <v>       0.28571429       0.00000000       0.00000000 </v>
   <v>       0.00000000       0.28571429       0.00000000 </v>
   <v>      -0.28571429       0.28571429       0.00000000 </v>
   <v>       0.42857143       0.00000000       0.00000000 </v>
   <v>       0.00000000       0.42857143       0.00000000 </v>
   <v>      -0.42857143       0.42857143       0.00000000 </v>
   <v>       0.14285714       0.14285714       0.00000000 </v>
   <v>      -0.14285714       0.28571429       0.00000000 </v>
   <v>      -0.28571429       0.14285714       0.00000000 </v>
   <v>       0.28571429       0.14285714       0.00000000 </v>
   <v>      -0.14285714       0.42857143       0.00000000 </v>
   <v>      -0.42857143       0.28571429       0.00000000 </v>
   <v>      -0.28571429       0.42857143       0.00000000 </v>
   <v>       0.14285714       0.28571429       0.00000000 </v>
   <v>       0.42857143      -0.14285714       0.00000000 </v>
   <v>       0.42857143       0.14285714       0.00000000 </v>
   <v>      -0.14285714      -0.42857143       0.00000000 </v>
   <v>       0.42857143       0.42857143       0.00000000 </v>
   <v>       0.28571429       0.28571429       0.00000000 </v>
   <v>      -0.28571429      -0.42857143       0.00000000 </v>
   <v>       0.42857143       0.28571429       0.00000000 </v>
  </varray>
  <varray name="weights" >
   <v>       0.02040816 </v>
   <v>       0.04081633 </v>
   <v>       0.04081633 </v>
   <v>       0.04081633 </v>
   <v>       0.04081633 </v>
   <v>       0.04081633 </v>
   <v>       0.04081633 </v>
   <v>       0.04081633 </v>
   <v>       0.04081633 </v>
   <v>       0.04081633 </v>
   <v>       0.04081633 </v>
   <v>       0.04081633 </v>
   <v>       0.04081633 </v>
   <v>       0.04081633 </v>
   <v>       0.04081633 </v>
   <v>       0.04081633 </v>
   <v>       0.04081633 </v>
   <v>       0.04081633 </v>
   <v>       0.04081633 </v>
   <v>       0.04081633 </v>
   <v>       0.04081633 </v>
   <v>       0.04081633 </v>
   <v>       0.04081633 </v>
   <v>       0.04081633 </v>
   <v>       0.04081633 </v>
  </varray>
 </kpoints>
 <parameters>
  <separator name="general" >
   <i type="string" name="SYSTEM">SCF</i>
   <i type="logical" name="LCOMPAT"> F  </i>
  </separator>
  <separator name="electronic" >
   <i type="string" name="PREC">normal</i>
   <i name="ENMAX">    600.00000000</i>
   <i name="ENAUG">    644.87300000</i>
   <i name="EDIFF">      0.00000100</i>
   <i type="int" name="IALGO">    38</i>
   <i type="int" name="IWAVPR">    10</i>
   <i type="int" name="NBANDS">    46</i>
   <i type="int" name="NBANDSLOW">    -1</i>
   <i type="int" name="NBANDSHIGH">    -1</i>
   <i name="NELECT">     72.00000000</i>
   <i type="int" name="TURBO">     0</i>
   <i type="int" name="IRESTART">     0</i>
   <i type="int" name="NREBOOT">     0</i>
   <i type="int" name="NMIN">     0</i>
   <i name="EREF">      0.00000000</i>
   <separator name="electronic smearing" >
    <i type="int" name="ISMEAR">     0</i>
    <i name="SIGMA">      0.05000000</i>
    <i name="KSPACING">      0.50000000</i>
    <i type="logical" name="KGAMMA"> T  </i>
    <i type="logical" name="KBLOWUP"> T  </i>
   </separator>
   <separator name="electronic projectors" >
    <i type="logical" name="LREAL"> T  </i>
    <v name="ROPT">     -0.00050000</v>
    <i type="int" name="LMAXPAW">  -100</i>
    <i type="int" name="LMAXMIX">     2</i>
    <i type="logical" name="NLSPLINE"> F  </i>
   </separator>
   <separator name="electronic startup" >
    <i type="int" name="ISTART">     0</i>
    <i type="int" name="ICHARG">     2</i>
    <i type="int" name="INIWAV">     1</i>
   </separator>
   <separator name="electronic spin" >
    <i type="int" name="ISPIN">     1</i>
    <i type="logical" name="LNONCOLLINEAR"> F  </i>
    <v name="MAGMOM">      1.00000000      1.00000000      1.00000000      1.00000000      1.00000000      1.00000000      1.00000000      1.00000000      1.00000000      1.00000000      1.00000000      1.00000000      1.00000000      1.00000000      1.00000000      1.00000000      1.00000000      1.00000000</v>
    <i name="NUPDOWN">     -1.00000000</i>
    <i type="logical" name="LSORBIT"> F  </i>
    <v name="SAXIS">      0.00000000      0.00000000      1.00000000</v>
    <i type="logical" name="LSPIRAL"> F  </i>
    <v name="QSPIRAL">      0.00000000      0.00000000      0.00000000</v>
    <i type="logical" name="LZEROZ"> F  </i>
   </separator>
   <separator name="electronic exchange-correlation" >
    <i type="logical" name="LASPH"> F  </i>
    <i type="logical" name="LMETAGGA"> F  </i>
   </separator>
   <separator name="electronic convergence" >
    <i type="int" name="NELM">    60</i>
    <i type="int" name="NELMDL">    -5</i>
    <i type="int" name="NELMIN">     6</i>
    <i name="ENINI">    600.00000000</i>
    <separator name="electronic convergence detail" >
     <i type="logical" name="LDIAG"> T  </i>
     <i type="logical" name="LSUBROT"> F  </i>
     <i name="WEIMIN">      0.00000000</i>
     <i name="EBREAK">      0.00000000</i>
     <i name="DEPER">      0.30000000</i>
     <i type="int" name="NRMM">     4</i>
     <i name="TIME">      0.40000000</i>
    </separator>
   </separator>
   <separator name="electronic mixer" >
    <i name="AMIX">      0.40000000</i>
    <i name="BMIX">      1.00000000</i>
    <i name="AMIN">      0.10000000</i>
    <i name="AMIX_MAG">      1.60000000</i>
    <i name="BMIX_MAG">      1.00000000</i>
    <separator name="electronic mixer details" >
     <i type="int" name="IMIX">     4</i>
     <i type="logical" name="MIXFIRST"> F  </i>
     <i type="int" name="MAXMIX">   -45</i>
     <i name="WC">    100.00000000</i>
     <i type="int" name="INIMIX">     1</i>
     <i type="int" name="MIXPRE">     1</i>
     <i type="int" name="MREMOVE">     5</i>
    </separator>
   </separator>
   <separator name="electronic dipolcorrection" >
    <i type="logical" name="LDIPOL"> F  </i>
    <i type="logical" name="LMONO"> F  </i>
    <i type="int" name="IDIPOL">     0</i>
    <i name="EPSILON">      1.00000000</i>
    <v name="DIPOL">   -100.00000000   -100.00000000   -100.00000000</v>
    <i name="EFIELD">      0.00000000</i>
   </separator>
  </separator>
  <separator name="grids" >
   <i type="int" name="NGX">    48</i>
   <i type="int" name="NGY">    48</i>
   <i type="int" name="NGZ">   120</i>
   <i type="int" name="NGXF">    96</i>
   <i type="int" name="NGYF">    96</i>
   <i type="int" name="NGZF">   240</i>
   <i type="logical" name="ADDGRID"> F  </i>
  </separator>
  <separator name="ionic" >
   <i type="int" name="NSW">     0</i>
   <i type="int" name="IBRION">    -1</i>
   <i type="int" name="MDALGO">     0</i>
   <i type="int" name="ISIF">     2</i>
   <i name="PSTRESS">      0.00000000</i>
   <i name="EDIFFG">     -0.00000100</i>
   <i type="int" name="NFREE">     0</i>
   <i name="POTIM">      0.50000000</i>
   <i name="SMASS">     -3.00000000</i>
   <i name="SCALEE">      1.00000000</i>
  </separator>
  <separator name="ionic md" >
   <i name="TEBEG">      0.00010000</i>
   <i name="TEEND">      0.00010000</i>
   <i type="int" name="NBLOCK">     1</i>
   <i type="int" name="KBLOCK">     1</i>
   <i type="int" name="NPACO">   256</i>
   <i name="APACO">     10.00000000</i>
  </separator>
  <separator name="symmetry" >
   <i type="int" name="ISYM">     2</i>
   <i name="SYMPREC">      0.00001000</i>
  </separator>
  <separator name="dos" >
   <i type="int" name="LORBIT">     0</i>
   <v name="RWIGS">     -1.00000000</v>
   <i type="int" name="NEDOS">   301</i>
   <i name="EMIN">     10.00000000</i>
   <i name="EMAX">    -10.00000000</i>
   <i name="EFERMI">      0.00000000</i>
  </separator>
  <separator name="writing" >
   <i type="int" name="NWRITE">     2</i>
   <i type="logical" name="LWAVE"> F  </i>
   <i type="logical" name="LDOWNSAMPLE"> F  </i>
   <i type="logical" name="LCHARG"> F  </i>
   <i type="logical" name="LPARD"> F  </i>
   <i type="logical" name="LVTOT"> F  </i>
   <i type="logical" name="LVHAR"> F  </i>
   <i type="logical" name="LELF"> F  </i>
   <i type="logical" name="LOPTICS"> F  </i>
   <v name="STM">      0.00000000      0.00000000      0.00000000      0.00000000      0.00000000      0.00000000      0.00000000</v>
  </separator>
  <separator name="performance" >
   <i type="int" name="NPAR">     2</i>
   <i type="int" name="NSIM">     4</i>
   <i type="int" name="NBLK">    -1</i>
   <i type="logical" name="LPLANE"> T  </i>
   <i type="logical" name="LSCALAPACK"> T  </i>
   <i type="logical" name="LSCAAWARE"> F  </i>
   <i type="logical" name="LSCALU"> F  </i>
   <i type="logical" name="LASYNC"> F  </i>
   <i type="logical" name="LORBITALREAL"> F  </i>
  </separator>
  <separator name="miscellaneous" >
   <i type="int" name="IDIOT">     3</i>
   <i type="int" name="PHON_NSTRUCT">    -1</i>
   <i type="logical" name="LMUSIC"> F  </i>
   <v name="POMASS">     12.01100000</v>
   <v name="DARWINR">      0.00000000</v>
   <v name="DARWINV">      1.00000000</v>
   <i type="logical" name="LCORR"> T  </i>
  </separator>
  <i type="logical" name="GGA_COMPAT"> T  </i>
  <i type="logical" name="LBERRY"> F  </i>
  <i type="int" name="ICORELEVEL">     0</i>
  <i type="logical" name="LDAU"> F  </i>
  <i type="int" name="I_CONSTRAINED_M">     0</i>
  <separator name="electronic exchange-correlation" >
   <i type="string" name="GGA">--</i>
   <i type="int" name="VOSKOWN">     0</i>
   <i type="logical" name="LHFCALC"> F  </i>
   <i type="string" name="PRECFOCK"></i>
   <i type="logical" name="LSYMGRAD"> F  </i>
   <i type="logical" name="LHFONE"> F  </i>
   <i type="logical" name="LRHFCALC"> F  </i>
   <i type="logical" name="LTHOMAS"> F  </i>
   <i type="logical" name="LMODELHF"> F  </i>
   <i type="logical" name="LFOCKACE"> F  </i>
   <i name="ENCUT4O">     -1.00000000</i>
   <i type="int" name="EXXOEP">     0</i>
   <i type="int" name="FOURORBIT">     0</i>
   <i name="AEXX">      0.00000000</i>
   <i name="HFALPHA">      0.00000000</i>
   <i name="MCALPHA">      0.00000000</i>
   <i name="ALDAX">      1.00000000</i>
   <i name="AGGAX">      1.00000000</i>
   <i name="ALDAC">      1.00000000</i>
   <i name="AGGAC">      1.00000000</i>
   <i type="int" name="NKREDX">     1</i>
   <i type="int" name="NKREDY">     1</i>
   <i type="int" name="NKREDZ">     1</i>
   <i type="logical" name="SHIFTRED"> F  </i>
   <i type="logical" name="ODDONLY"> F  </i>
   <i type="logical" name="EVENONLY"> F  </i>
   <i type="int" name="LMAXFOCK">     0</i>
   <i type="int" name="NMAXFOCKAE">     0</i>
   <i type="logical" name="LFOCKAEDFT"> F  </i>
   <i name="HFSCREEN">      0.00000000</i>
   <i name="HFSCREENC">      0.00000000</i>
   <i type="int" name="NBANDSGWLOW">     0</i>
  </separator>
  <separator name="vdW DFT" >
   <i type="logical" name="LUSE_VDW"> F  </i>
   <i type="int" name="IVDW_NL">     1</i>
   <i type="logical" name="LSPIN_VDW"> F  </i>
   <i name="Zab_VDW">     -0.84910000</i>
   <i name="PARAM1">      0.12340000</i>
   <i name="PARAM2">      1.00000000</i>
   <i name="PARAM3">      0.00000000</i>
  </separator>
  <separator name="model GW" >
   <i type="int" name="MODEL_GW">     0</i>
   <i name="MODEL_EPS0">     31.63027863</i>
   <i name="MODEL_ALPHA">      1.00000000</i>
  </separator>
  <separator name="linear response parameters" >
   <i type="logical" name="LEPSILON"> F  </i>
   <i type="logical" name="LRPA"> F  </i>
   <i type="logical" name="LNABLA"> F  </i>
   <i type="logical" name="LVEL"> F  </i>
   <i name="CSHIFT">      0.10000000</i>
   <i name="OMEGAMAX">     -1.00000000</i>
   <i name="DEG_THRESHOLD">      0.00200000</i>
   <i name="RTIME">     -0.10000000</i>
   <i name="WPLASMAI">      0.00000000</i>
   <v name="DFIELD">      0.00000000      0.00000000      0.00000000</v>
   <v name="WPLASMA">      0.00000000      0.00000000      0.00000000      0.00000000      0.00000000      0.00000000      0.00000000      0.00000000      0.00000000</v>
  </separator>
  <separator name="orbital magnetization" >
   <i type="logical" name="NUCIND"> F  </i>
   <v name="MAGPOS">      0.00000000      0.00000000      0.00000000</v>
   <i type="logical" name="LNICSALL"> T  </i>
   <i type="logical" name="ORBITALMAG"> F  </i>
   <i type="logical" name="LMAGBLOCH"> F  </i>
   <i type="logical" name="LCHIMAG"> F  </i>
   <i type="logical" name="LGAUGE"> T  </i>
   <i type="int" name="MAGATOM">     0</i>
   <v name="MAGDIPOL">      0.00000000      0.00000000      0.00000000</v>
   <v name="AVECCONST">      0.00000000      0.00000000      0.00000000</v>
  </separator>
  <separator name="response functions" >
   <i type="logical" name="LALL_IN_ONE"> F  </i>
   <i type="int" name="IALL_IN_ONE">    -1</i>
   <i type="int" name="NBANDS_WAVE">    -1</i>
   <i type="logical" name="LFINITE_TEMPERATURE"> F  </i>
   <i type="logical" name="LADDER"> F  </i>
   <i type="logical" name="LRPAFORCE"> F  </i>
   <i type="logical" name="LFXC"> F  </i>
   <i type="logical" name="LHARTREE"> T  </i>
   <i type="int" name="IBSE">     0</i>
   <v type="int" name="KPOINT">    -1     0     0     0</v>
   <i type="logical" name="LTCTC"> F  </i>
   <i type="logical" name="LTCTE"> F  </i>
   <i type="logical" name="LTETE"> F  </i>
   <i type="logical" name="LTRIPLET"> F  </i>
   <i type="logical" name="LFXCEPS"> F  </i>
   <i type="logical" name="LFXHEG"> F  </i>
   <i type="int" name="NATURALO">     2</i>
   <i type="logical" name="LHOLEGF"> F  </i>
   <i type="logical" name="L2ORDER"> F  </i>
   <i type="logical" name="LDMP1"> F  </i>
   <i type="logical" name="LMP2LT"> F  </i>
   <i type="logical" name="LSMP2LT"> F  </i>
   <i type="logical" name="LGWLF"> F  </i>
   <i name="ENCUTGW">     -1.60000002</i>
   <i name="ENCUTGWSOFT">     -1.60000002</i>
   <i name="ENCUTLF">     -1.00000000</i>
   <i type="logical" name="LESF_SPLINES"> F  </i>
   <i type="int" name="LMAXMP2">    -1</i>
   <i name="SCISSOR">      0.00000000</i>
   <i type="int" name="NOMEGA">     0</i>
   <i type="int" name="NOMEGAR">     0</i>
   <i type="int" name="NBANDSGW">    -1</i>
   <i type="int" name="NBANDSO">    -1</i>
   <i type="int" name="NBANDSV">    -1</i>
   <i type="int" name="NELMGW">     1</i>
   <i type="int" name="NELMHF">     1</i>
   <i type="int" name="DIM">     3</i>
   <i type="int" name="IESPILON">     4</i>
   <i type="int" name="ANTIRES">     0</i>
   <i name="OMEGAMAX">    -30.00000000</i>
   <i name="OMEGAMIN">    -30.00000000</i>
   <i name="OMEGATL">   -200.00000000</i>
   <i type="int" name="OMEGAGRID">     0</i>
   <i name="CSHIFT">     -0.10000000</i>
   <i type="logical" name="LSELFENERGY"> F  </i>
   <i type="logical" name="LSPECTRAL"> F  </i>
   <i type="logical" name="LSPECTRALGW"> F  </i>
   <i type="logical" name="LSINGLES"> F  </i>
   <i type="logical" name="LFERMIGW"> F  </i>
   <i type="logical" name="ODDONLYGW"> F  </i>
   <i type="logical" name="EVENONLYGW"> F  </i>
   <i type="int" name="NKREDLFX">     1</i>
   <i type="int" name="NKREDLFY">     1</i>
   <i type="int" name="NKREDLFZ">     1</i>
   <i type="int" name="MAXMEM">  2800</i>
   <i type="int" name="TELESCOPE">     0</i>
   <i type="int" name="NTAUPAR">    -1</i>
   <i type="int" name="NOMEGAPAR">    -1</i>
   <i name="DAMP_NEWTON">      0.80000001</i>
   <i name="LAMBDA">      1.00000000</i>
  </separator>
  <separator name="External order field" >
   <i name="OFIELD_KAPPA">      0.00000000</i>
   <v name="OFIELD_K">      0.00000000      0.00000000      0.00000000</v>
   <i name="OFIELD_Q6_NEAR">      0.00000000</i>
   <i name="OFIELD_Q6_FAR">      0.00000000</i>
   <i name="OFIELD_A">      0.00000000</i>
  </separator>
  <separator name="optional k-points parameters" >
   <i type="int" name="KPOINTS_OPT_MODE">     1</i>
   <i type="logical" name="LKPOINTS_OPT"> F  </i>
  </separator>
 </parameters>
 <atominfo>
  <atoms>      18 </atoms>
  <types>       1 </types>
  <array name="atoms" >
   <dimension dim="1">ion</dimension>
   <field type="string">element</field>
   <field type="int">atomtype</field>
   <set>
    <rc><c>C </c><c>   1</c></rc>
    <rc><c>C </c><c>   1</c></rc>
    <rc><c>C </c><c>   1</c></rc>
    <rc><c>C </c><c>   1</c></rc>
    <rc><c>C </c><c>   1</c></rc>
    <rc><c>C </c><c>   1</c></rc>
    <rc><c>C </c><c>   1</c></rc>
    <rc><c>C </c><c>   1</c></rc>
    <rc><c>C </c><c>   1</c></rc>
    <rc><c>C </c><c>   1</c></rc>
    <rc><c>C </c><c>   1</c></rc>
    <rc><c>C </c><c>   1</c></rc>
    <rc><c>C </c><c>   1</c></rc>
    <rc><c>C </c><c>   1</c></rc>
    <rc><c>C </c><c>   1</c></rc>
    <rc><c>C </c><c>   1</c></rc>
    <rc><c>C </c><c>   1</c></rc>
    <rc><c>C </c><c>   1</c></rc>
   </set>
  </array>
  <array name="atomtypes" >
   <dimension dim="1">type</dimension>
   <field type="int">atomspertype</field>
   <field type="string">element</field>
   <field>mass</field>
   <field>valence</field>
   <field type="string">pseudopotential</field>
   <set>
    <rc><c>  18</c><c>C </c><c>     12.01100000</c><c>      4.00000000</c><c>  PAW_PBE C 08Apr2002                   </c></rc>
   </set>
  </array>
 </atominfo>
 <structure name="initialpos" >
  <crystal>
   <varray name="basis" >
    <v>       7.40170591       0.00000000       0.00000000 </v>
    <v>      -3.70085295       6.41006527       0.00000000 </v>
    <v>       0.00000000       0.00000000      20.00000000 </v>
   </varray>
   <i name="volume">    948.90835877 </i>
   <varray name="rec_basis" >
    <v>       0.13510399       0.07800233       0.00000000 </v>
    <v>       0.00000000       0.15600465       0.00000000 </v>
    <v>       0.00000000       0.00000000       0.05000000 </v>
   </varray>
  </crystal>
  <varray name="positions" >
   <v>       0.99921998       0.99843995       0.50000000 </v>
   <v>       0.33468437       0.00000000       0.50000000 </v>
   <v>       0.66666667       0.00000000       0.50000000 </v>
   <v>       0.00000000       0.33333333       0.50000000 </v>
   <v>       0.33333333       0.33333333       0.50000000 </v>
   <v>       0.66666667       0.33333333       0.50000000 </v>
   <v>       0.00000000       0.66666667       0.50000000 </v>
   <v>       0.33333333       0.66666667       0.50000000 </v>
   <v>       0.66666667       0.66666667       0.50000000 </v>
   <v>       0.22222222       0.11111111       0.50000000 </v>
   <v>       0.55555556       0.11111111       0.50000000 </v>
   <v>       0.88888889       0.11111111       0.50000000 </v>
   <v>       0.22222222       0.44444444       0.50000000 </v>
   <v>       0.55555556       0.44444444       0.50000000 </v>
   <v>       0.88888889       0.44444444       0.50000000 </v>
   <v>       0.22222222       0.77777778       0.50000000 </v>
   <v>       0.55555556       0.77777778       0.50000000 </v>
   <v>       0.88888889       0.77777778       0.50000000 </v>
  </varray>
 </structure>
 <calculation>
  <scstep>
   <time name="dav">    5.88    6.10</time>
   <time name="total">    5.97    6.20</time>
   <energy>
    <i name="alphaZ">     28.04858418 </i>
    <i name="ewald">  11638.87697292 </i>
    <i name="hartreedc"> -13553.18239613 </i>
    <i name="XCdc">    237.17775102 </i>
    <i name="pawpsdc">   1953.39683484 </i>
    <i name="pawaedc">  -1963.64613940 </i>
    <i name="eentropy">     -0.00837296 </i>
    <i name="bandstr">   -257.77981322 </i>
    <i name="atom">   2648.70517965 </i>
    <i name="e_fr_energy">    731.58860090 </i>
    <i name="e_wo_entrp">    731.59697387 </i>
    <i name="e_0_energy">    731.59278739 </i>
   </energy>
  </scstep>
  <scstep>
   <time name="dav">    7.89    7.01</time>
   <time name="total">    7.89    7.01</time>
   <energy>
    <i name="e_fr_energy">    -23.94880117 </i>
    <i name="e_wo_entrp">    -23.94844571 </i>
    <i name="e_0_energy">    -23.94862344 </i>
   </energy>
  </scstep>
  <scstep>
   <time name="dav">    6.41    6.65</time>
   <time name="total">    6.41    6.65</time>
   <energy>
    <i name="e_fr_energy">   -172.28742509 </i>
    <i name="e_wo_entrp">   -172.28619046 </i>
    <i name="e_0_energy">   -172.28680777 </i>
   </energy>
  </scstep>
  <scstep>
   <time name="dav">    6.27    6.51</time>
   <time name="total">    6.27    6.51</time>
   <energy>
    <i name="e_fr_energy">   -177.34735124 </i>
    <i name="e_wo_entrp">   -177.34527779 </i>
    <i name="e_0_energy">   -177.34631452 </i>
   </energy>
  </scstep>
  <scstep>
   <time name="dav">    7.12    7.39</time>
   <time name="total">    7.40    7.68</time>
   <energy>
    <i name="e_fr_energy">   -177.48397132 </i>
    <i name="e_wo_entrp">   -177.48187739 </i>
    <i name="e_0_energy">   -177.48292436 </i>
   </energy>
  </scstep>
  <scstep>
   <time name="dav">    5.89    6.11</time>
   <time name="total">    6.24    6.47</time>
   <energy>
    <i name="e_fr_energy">   -169.31606695 </i>
    <i name="e_wo_entrp">   -169.31389303 </i>
    <i name="e_0_energy">   -169.31497999 </i>
   </energy>
  </scstep>
  <scstep>
   <time name="dav">    5.88    4.91</time>
   <time name="total">    6.23    5.27</time>
   <energy>
    <i name="e_fr_energy">   -166.14838939 </i>
    <i name="e_wo_entrp">   -166.14620218 </i>
    <i name="e_0_energy">   -166.14729578 </i>
   </energy>
  </scstep>
  <scstep>
   <time name="dav">    6.18    6.41</time>
   <time name="total">    6.53    6.78</time>
   <energy>
    <i name="e_fr_energy">   -166.08540892 </i>
    <i name="e_wo_entrp">   -166.08323180 </i>
    <i name="e_0_energy">   -166.08432036 </i>
   </energy>
  </scstep>
  <scstep>
   <time name="dav">    6.55    6.80</time>
   <time name="total">    6.90    7.16</time>
   <energy>
    <i name="e_fr_energy">   -166.07250520 </i>
    <i name="e_wo_entrp">   -166.07032335 </i>
    <i name="e_0_energy">   -166.07141427 </i>
   </energy>
  </scstep>
  <scstep>
   <time name="dav">    5.72    5.95</time>
   <time name="total">    6.08    6.32</time>
   <energy>
    <i name="e_fr_energy">   -166.05399679 </i>
    <i name="e_wo_entrp">   -166.05181260 </i>
    <i name="e_0_energy">   -166.05290469 </i>
   </energy>
  </scstep>
  <scstep>
   <time name="dav">    5.72    5.95</time>
   <time name="total">    6.07    6.31</time>
   <energy>
    <i name="e_fr_energy">   -166.05721519 </i>
    <i name="e_wo_entrp">   -166.05503406 </i>
    <i name="e_0_energy">   -166.05612462 </i>
   </energy>
  </scstep>
  <scstep>
   <time name="dav">    5.86    4.90</time>
   <time name="total">    6.22    5.27</time>
   <energy>
    <i name="e_fr_energy">   -166.06177113 </i>
    <i name="e_wo_entrp">   -166.05958947 </i>
    <i name="e_0_energy">   -166.06068030 </i>
   </energy>
  </scstep>
  <scstep>
   <time name="dav">    5.68    5.88</time>
   <time name="total">    6.03    6.24</time>
   <energy>
    <i name="e_fr_energy">   -166.06610033 </i>
    <i name="e_wo_entrp">   -166.06391780 </i>
    <i name="e_0_energy">   -166.06500906 </i>
   </energy>
  </scstep>
  <scstep>
   <time name="dav">    5.62    5.87</time>
   <time name="total">    5.98    6.25</time>
   <energy>
    <i name="e_fr_energy">   -166.06988150 </i>
    <i name="e_wo_entrp">   -166.06769920 </i>
    <i name="e_0_energy">   -166.06879035 </i>
   </energy>
  </scstep>
  <scstep>
   <time name="dav">    5.84    6.09</time>
   <time name="total">    6.19    6.46</time>
   <energy>
    <i name="e_fr_energy">   -166.07131430 </i>
    <i name="e_wo_entrp">   -166.06913191 </i>
    <i name="e_0_energy">   -166.07022311 </i>
   </energy>
  </scstep>
  <scstep>
   <time name="dav">    5.93    6.16</time>
   <time name="total">    6.29    6.54</time>
   <energy>
    <i name="e_fr_energy">   -166.07145069 </i>
    <i name="e_wo_entrp">   -166.06926833 </i>
    <i name="e_0_energy">   -166.07035951 </i>
   </energy>
  </scstep>
  <scstep>
   <time name="dav">    5.61    4.59</time>
   <time name="total">    5.96    4.96</time>
   <energy>
    <i name="e_fr_energy">   -166.07166078 </i>
    <i name="e_wo_entrp">   -166.06947857 </i>
    <i name="e_0_energy">   -166.07056967 </i>
   </energy>
  </scstep>
  <scstep>
   <time name="dav">    5.05    5.24</time>
   <time name="total">    5.40    5.61</time>
   <energy>
    <i name="e_fr_energy">   -166.07171513 </i>
    <i name="e_wo_entrp">   -166.06953282 </i>
    <i name="e_0_energy">   -166.07062398 </i>
   </energy>
  </scstep>
  <scstep>
   <time name="dav">    4.98    5.16</time>
   <time name="total">    5.33    5.53</time>
   <energy>
    <i name="e_fr_energy">   -166.07174918 </i>
    <i name="e_wo_entrp">   -166.06956684 </i>
    <i name="e_0_energy">   -166.07065801 </i>
   </energy>
  </scstep>
  <scstep>
   <time name="dav">    4.81    5.00</time>
   <time name="total">    5.17    5.36</time>
   <energy>
    <i name="e_fr_energy">   -166.07177712 </i>
    <i name="e_wo_entrp">   -166.06959483 </i>
    <i name="e_0_energy">   -166.07068598 </i>
   </energy>
  </scstep>
  <scstep>
   <time name="dav">    3.93    4.08</time>
   <time name="total">    4.28    4.45</time>
   <energy>
    <i name="e_fr_energy">   -166.07178655 </i>
    <i name="e_wo_entrp">   -166.06960423 </i>
    <i name="e_0_energy">   -166.07069539 </i>
   </energy>
  </scstep>
  <scstep>
   <time name="dav">    3.85    3.99</time>
   <time name="total">    4.19    4.35</time>
   <energy>
    <i name="e_fr_energy">   -166.07178980 </i>
    <i name="e_wo_entrp">   -166.06960750 </i>
    <i name="e_0_energy">   -166.07069865 </i>
   </energy>
  </scstep>
  <scstep>
   <time name="dav">    3.99    4.14</time>
   <time name="total">    4.08    4.23</time>
   <energy>
    <i name="alphaZ">     28.04858418 </i>
    <i name="ewald">  11638.87697292 </i>
    <i name="hartreedc"> -13861.52462059 </i>
    <i name="XCdc">    247.81447133 </i>
    <i name="pawpsdc">   7453.00327149 </i>
    <i name="pawaedc">  -7465.26671606 </i>
    <i name="eentropy">     -0.00218230 </i>
    <i name="bandstr">   -855.72675077 </i>
    <i name="atom">   2648.70517965 </i>
    <i name="e_fr_energy">   -166.07179015 </i>
    <i name="e_wo_entrp">   -166.06960785 </i>
    <i name="e_0_energy">   -166.07069900 </i>
   </energy>
  </scstep>
  <structure>
   <crystal>
    <varray name="basis" >
     <v>       7.40170591       0.00000000       0.00000000 </v>
     <v>      -3.70085295       6.41006527       0.00000000 </v>
     <v>       0.00000000       0.00000000      20.00000000 </v>
    </varray>
    <i name="volume">    948.90835877 </i>
    <varray name="rec_basis" >
     <v>       0.13510399       0.07800233       0.00000000 </v>
     <v>       0.00000000       0.15600465       0.00000000 </v>
     <v>       0.00000000       0.00000000       0.05000000 </v>
    </varray>
   </crystal>
   <varray name="positions" >
    <v>       0.99921998       0.99843995       0.50000000 </v>
    <v>       0.33468437       0.00000000       0.50000000 </v>
    <v>       0.66666667       0.00000000       0.50000000 </v>
    <v>       0.00000000       0.33333333       0.50000000 </v>
    <v>       0.33333333       0.33333333       0.50000000 </v>
    <v>       0.66666667       0.33333333       0.50000000 </v>
    <v>       0.00000000       0.66666667       0.50000000 </v>
    <v>       0.33333333       0.66666667       0.50000000 </v>
    <v>       0.66666667       0.66666667       0.50000000 </v>
    <v>       0.22222222       0.11111111       0.50000000 </v>
    <v>       0.55555556       0.11111111       0.50000000 </v>
    <v>       0.88888889       0.11111111       0.50000000 </v>
    <v>       0.22222222       0.44444444       0.50000000 </v>
    <v>       0.55555556       0.44444444       0.50000000 </v>
    <v>       0.88888889       0.44444444       0.50000000 </v>
    <v>       0.22222222       0.77777778       0.50000000 </v>
    <v>       0.55555556       0.77777778       0.50000000 </v>
    <v>       0.88888889       0.77777778       0.50000000 </v>
   </varray>
  </structure>
  <varray name="forces" >
   <v>       0.04940840       0.61894325      -0.00000000 </v>
   <v>      -0.61052538       0.01608772      -0.00000000 </v>
   <v>       0.06458641       0.01072800       0.00000000 </v>
   <v>       0.04913037      -0.03116740      -0.00000000 </v>
   <v>      -0.02409511      -0.07749035       0.00000000 </v>
   <v>      -0.00565584       0.01546629       0.00000000 </v>
   <v>       0.04078366      -0.01316308      -0.00000000 </v>
   <v>      -0.00572147      -0.04952841       0.00000000 </v>
   <v>      -0.01568622      -0.03190376       0.00000000 </v>
   <v>       0.14423710      -0.18922936       0.00000000 </v>
   <v>       0.20786402       0.08358327       0.00000000 </v>
   <v>       0.05173841      -0.13898567       0.00000000 </v>
   <v>      -0.01938135       0.02140277       0.00000000 </v>
   <v>       0.01127569       0.00713329       0.00000000 </v>
   <v>      -0.00873224       0.01746611       0.00000000 </v>
   <v>       0.08436230      -0.00788567      -0.00000000 </v>
   <v>       0.00493232       0.01472485       0.00000000 </v>
   <v>      -0.01852108      -0.26618184       0.00000000 </v>
  </varray>
  <varray name="stress" >
   <v>      -0.20574749       0.06535848       0.00000000 </v>
   <v>       0.06535849      -0.07653373       0.00000000 </v>
   <v>       0.00000000       0.00000000      -0.56321557 </v>
  </varray>
  <energy>
   <i name="e_fr_energy">   -166.07179015 </i>
   <i name="e_wo_entrp">   -166.06960785 </i>
   <i name="e_0_energy">   -166.07069900 </i>
  </energy>
  <time name="totalsc">  142.32  141.79</time>
  <eigenvalues>
   <array>
    <dimension dim="1">band</dimension>
    <dimension dim="2">kpoint</dimension>
    <dimension dim="3">spin</dimension>
    <field>eigene</field>
    <field>occ</field>
    <set>
     <set comment="spin 1">
      <set comment="kpoint 1">
       <r>  -22.2561    1.0000 </r>
       <r>  -19.7030    1.0000 </r>
       <r>  -19.6828    1.0000 </r>
       <r>  -19.6757    1.0000 </r>
       <r>  -19.6738    1.0000 </r>
       <r>  -19.6618    1.0000 </r>
       <r>  -19.6435    1.0000 </r>
       <r>  -15.3636    1.0000 </r>
       <r>  -15.3422    1.0000 </r>
       <r>  -15.3366    1.0000 </r>
       <r>  -15.3209    1.0000 </r>
       <r>  -13.2911    1.0000 </r>
       <r>  -13.2886    1.0000 </r>
       <r>  -12.4007    1.0000 </r>
       <r>  -12.3904    1.0000 </r>
       <r>  -12.3826    1.0000 </r>
       <r>  -12.3677    1.0000 </r>
       <r>  -12.3577    1.0000 </r>
       <r>  -12.3485    1.0000 </r>
       <r>  -10.3600    1.0000 </r>
       <r>   -8.5588    1.0000 </r>
       <r>   -8.5397    1.0000 </r>
       <r>   -8.5273    1.0000 </r>
       <r>   -8.5219    1.0000 </r>
       <r>   -8.5059    1.0000 </r>
       <r>   -8.4875    1.0000 </r>
       <r>   -7.3971    1.0000 </r>
       <r>   -7.3785    1.0000 </r>
       <r>   -7.3726    1.0000 </r>
       <r>   -7.3712    1.0000 </r>
       <r>   -7.3615    1.0000 </r>
       <r>   -7.3448    1.0000 </r>
       <r>   -5.8075    1.0000 </r>
       <r>   -5.7607    1.0000 </r>
       <r>   -2.7719    0.6813 </r>
       <r>   -2.7601    0.5555 </r>
       <r>   -2.7473    0.4113 </r>
       <r>   -2.7418    0.3520 </r>
       <r>    0.5196    0.0000 </r>
       <r>    1.3119    0.0000 </r>
       <r>    1.6351    0.0000 </r>
       <r>    2.1101    0.0000 </r>
       <r>    2.1360    0.0000 </r>
       <r>    2.1437    0.0000 </r>
       <r>    2.1543    0.0000 </r>
       <r>    2.1768    0.0000 </r>
      </set>
      <set comment="kpoint 2">
       <r>  -22.2025    1.0000 </r>
       <r>  -20.3495    1.0000 </r>
       <r>  -19.9919    1.0000 </r>
       <r>  -19.9769    1.0000 </r>
       <r>  -19.2701    1.0000 </r>
       <r>  -19.2548    1.0000 </r>
       <r>  -18.9059    1.0000 </r>
       <r>  -16.0062    1.0000 </r>
       <r>  -15.9849    1.0000 </r>
       <r>  -14.9242    1.0000 </r>
       <r>  -14.9019    1.0000 </r>
       <r>  -13.5998    1.0000 </r>
       <r>  -12.9819    1.0000 </r>
       <r>  -12.9643    1.0000 </r>
       <r>  -12.9590    1.0000 </r>
       <r>  -12.9464    1.0000 </r>
       <r>  -11.7411    1.0000 </r>
       <r>  -11.7263    1.0000 </r>
       <r>  -11.1200    1.0000 </r>
       <r>  -10.2960    1.0000 </r>
       <r>   -8.8809    1.0000 </r>
       <r>   -8.8524    1.0000 </r>
       <r>   -8.8242    1.0000 </r>
       <r>   -8.5241    1.0000 </r>
       <r>   -8.4974    1.0000 </r>
       <r>   -8.1277    1.0000 </r>
       <r>   -8.1269    1.0000 </r>
       <r>   -7.7214    1.0000 </r>
       <r>   -7.7066    1.0000 </r>
       <r>   -6.9306    1.0000 </r>
       <r>   -6.9156    1.0000 </r>
       <r>   -6.5556    1.0000 </r>
       <r>   -6.0143    1.0000 </r>
       <r>   -5.8898    1.0000 </r>
       <r>   -3.5364    1.0000 </r>
       <r>   -3.5171    1.0000 </r>
       <r>   -2.0156    0.0000 </r>
       <r>   -1.9935    0.0000 </r>
       <r>    0.5922    0.0000 </r>
       <r>    0.8720    0.0000 </r>
       <r>    1.3854    0.0000 </r>
       <r>    1.4635    0.0000 </r>
       <r>    1.4861    0.0000 </r>
       <r>    1.7096    0.0000 </r>
       <r>    2.6300    0.0000 </r>
       <r>    2.7523    0.0000 </r>
      </set>
      <set comment="kpoint 3">
       <r>  -22.2025    1.0000 </r>
       <r>  -20.3496    1.0000 </r>
       <r>  -19.9932    1.0000 </r>
       <r>  -19.9753    1.0000 </r>
       <r>  -19.2716    1.0000 </r>
       <r>  -19.2532    1.0000 </r>
       <r>  -18.9061    1.0000 </r>
       <r>  -16.0069    1.0000 </r>
       <r>  -15.9848    1.0000 </r>
       <r>  -14.9211    1.0000 </r>
       <r>  -14.9038    1.0000 </r>
       <r>  -13.6033    1.0000 </r>
       <r>  -12.9765    1.0000 </r>
       <r>  -12.9702    1.0000 </r>
       <r>  -12.9548    1.0000 </r>
       <r>  -12.9474    1.0000 </r>
       <r>  -11.7371    1.0000 </r>
       <r>  -11.7257    1.0000 </r>
       <r>  -11.1243    1.0000 </r>
       <r>  -10.2960    1.0000 </r>
       <r>   -8.8804    1.0000 </r>
       <r>   -8.8574    1.0000 </r>
       <r>   -8.8193    1.0000 </r>
       <r>   -8.5241    1.0000 </r>
       <r>   -8.5040    1.0000 </r>
       <r>   -8.1261    1.0000 </r>
       <r>   -8.1217    1.0000 </r>
       <r>   -7.7230    1.0000 </r>
       <r>   -7.7062    1.0000 </r>
       <r>   -6.9319    1.0000 </r>
       <r>   -6.9155    1.0000 </r>
       <r>   -6.5537    1.0000 </r>
       <r>   -6.0220    1.0000 </r>
       <r>   -5.8820    1.0000 </r>
       <r>   -3.5346    1.0000 </r>
       <r>   -3.5192    1.0000 </r>
       <r>   -2.0124    0.0000 </r>
       <r>   -1.9961    0.0000 </r>
       <r>    0.5922    0.0000 </r>
       <r>    0.8672    0.0000 </r>
       <r>    1.3854    0.0000 </r>
       <r>    1.4656    0.0000 </r>
       <r>    1.4872    0.0000 </r>
       <r>    1.7096    0.0000 </r>
       <r>    2.6300    0.0000 </r>
       <r>    2.7536    0.0000 </r>
      </set>
      <set comment="kpoint 4">
       <r>  -22.2025    1.0000 </r>
       <r>  -20.3491    1.0000 </r>
       <r>  -19.9949    1.0000 </r>
       <r>  -19.9743    1.0000 </r>
       <r>  -19.2731    1.0000 </r>
       <r>  -19.2520    1.0000 </r>
       <r>  -18.9056    1.0000 </r>
       <r>  -16.0064    1.0000 </r>
       <r>  -15.9835    1.0000 </r>
       <r>  -14.9192    1.0000 </r>
       <r>  -14.9096    1.0000 </r>
       <r>  -13.5906    1.0000 </r>
       <r>  -12.9813    1.0000 </r>
       <r>  -12.9732    1.0000 </r>
       <r>  -12.9556    1.0000 </r>
       <r>  -12.9482    1.0000 </r>
       <r>  -11.7439    1.0000 </r>
       <r>  -11.7373    1.0000 </r>
       <r>  -11.1077    1.0000 </r>
       <r>  -10.2961    1.0000 </r>
       <r>   -8.8713    1.0000 </r>
       <r>   -8.8535    1.0000 </r>
       <r>   -8.8341    1.0000 </r>
       <r>   -8.5084    1.0000 </r>
       <r>   -8.4956    1.0000 </r>
       <r>   -8.1435    1.0000 </r>
       <r>   -8.1290    1.0000 </r>
       <r>   -7.7215    1.0000 </r>
       <r>   -7.7029    1.0000 </r>
       <r>   -6.9304    1.0000 </r>
       <r>   -6.9126    1.0000 </r>
       <r>   -6.5611    1.0000 </r>
       <r>   -5.9832    1.0000 </r>
       <r>   -5.9212    1.0000 </r>
       <r>   -3.5313    1.0000 </r>
       <r>   -3.5213    1.0000 </r>
       <r>   -2.0080    0.0000 </r>
       <r>   -2.0021    0.0000 </r>
       <r>    0.5922    0.0000 </r>
       <r>    0.8854    0.0000 </r>
       <r>    1.3854    0.0000 </r>
       <r>    1.4601    0.0000 </r>
       <r>    1.4809    0.0000 </r>
       <r>    1.7096    0.0000 </r>
       <r>    2.6300    0.0000 </r>
       <r>    2.7440    0.0000 </r>
      </set>
      <set comment="kpoint 5">
       <r>  -22.0420    1.0000 </r>
       <r>  -20.9269    1.0000 </r>
       <r>  -20.2001    1.0000 </r>
       <r>  -20.1855    1.0000 </r>
       <r>  -18.7635    1.0000 </r>
       <r>  -18.7474    1.0000 </r>
       <r>  -18.0628    1.0000 </r>
       <r>  -16.7549    1.0000 </r>
       <r>  -16.7357    1.0000 </r>
       <r>  -14.7564    1.0000 </r>
       <r>  -14.6325    1.0000 </r>
       <r>  -14.6144    1.0000 </r>
       <r>  -13.5058    1.0000 </r>
       <r>  -13.4914    1.0000 </r>
       <r>  -12.1939    1.0000 </r>
       <r>  -12.1749    1.0000 </r>
       <r>  -11.1032    1.0000 </r>
       <r>  -11.0888    1.0000 </r>
       <r>  -10.1047    1.0000 </r>
       <r>   -9.8638    1.0000 </r>
       <r>   -9.5096    1.0000 </r>
       <r>   -9.4829    1.0000 </r>
       <r>   -9.0356    1.0000 </r>
       <r>   -8.7916    1.0000 </r>
       <r>   -8.7748    1.0000 </r>
       <r>   -8.7515    1.0000 </r>
       <r>   -7.9525    1.0000 </r>
       <r>   -7.9379    1.0000 </r>
       <r>   -7.6674    1.0000 </r>
       <r>   -6.6282    1.0000 </r>
       <r>   -6.3857    1.0000 </r>
       <r>   -6.3702    1.0000 </r>
       <r>   -6.2099    1.0000 </r>
       <r>   -5.7630    1.0000 </r>
       <r>   -4.3080    1.0000 </r>
       <r>   -4.2901    1.0000 </r>
       <r>   -1.2941    0.0000 </r>
       <r>   -1.2711    0.0000 </r>
       <r>   -0.2414    0.0000 </r>
       <r>    0.7771    0.0000 </r>
       <r>    0.8003    0.0000 </r>
       <r>    0.8102    0.0000 </r>
       <r>    1.6062    0.0000 </r>
       <r>    1.9330    0.0000 </r>
       <r>    2.3341    0.0000 </r>
       <r>    2.8513    0.0000 </r>
      </set>
      <set comment="kpoint 6">
       <r>  -22.0420    1.0000 </r>
       <r>  -20.9270    1.0000 </r>
       <r>  -20.2015    1.0000 </r>
       <r>  -20.1838    1.0000 </r>
       <r>  -18.7650    1.0000 </r>
       <r>  -18.7459    1.0000 </r>
       <r>  -18.0627    1.0000 </r>
       <r>  -16.7562    1.0000 </r>
       <r>  -16.7349    1.0000 </r>
       <r>  -14.7597    1.0000 </r>
       <r>  -14.6290    1.0000 </r>
       <r>  -14.6161    1.0000 </r>
       <r>  -13.5026    1.0000 </r>
       <r>  -13.4918    1.0000 </r>
       <r>  -12.1935    1.0000 </r>
       <r>  -12.1767    1.0000 </r>
       <r>  -11.0981    1.0000 </r>
       <r>  -11.0870    1.0000 </r>
       <r>  -10.1047    1.0000 </r>
       <r>   -9.8689    1.0000 </r>
       <r>   -9.5097    1.0000 </r>
       <r>   -9.4865    1.0000 </r>
       <r>   -9.0309    1.0000 </r>
       <r>   -8.7911    1.0000 </r>
       <r>   -8.7762    1.0000 </r>
       <r>   -8.7586    1.0000 </r>
       <r>   -7.9542    1.0000 </r>
       <r>   -7.9374    1.0000 </r>
       <r>   -7.6609    1.0000 </r>
       <r>   -6.6365    1.0000 </r>
       <r>   -6.3866    1.0000 </r>
       <r>   -6.3703    1.0000 </r>
       <r>   -6.2012    1.0000 </r>
       <r>   -5.7599    1.0000 </r>
       <r>   -4.3071    1.0000 </r>
       <r>   -4.2917    1.0000 </r>
       <r>   -1.2908    0.0000 </r>
       <r>   -1.2735    0.0000 </r>
       <r>   -0.2475    0.0000 </r>
       <r>    0.7796    0.0000 </r>
       <r>    0.8003    0.0000 </r>
       <r>    0.8102    0.0000 </r>
       <r>    1.6062    0.0000 </r>
       <r>    1.9330    0.0000 </r>
       <r>    2.3341    0.0000 </r>
       <r>    2.8513    0.0000 </r>
      </set>
      <set comment="kpoint 7">
       <r>  -22.0419    1.0000 </r>
       <r>  -20.9266    1.0000 </r>
       <r>  -20.2033    1.0000 </r>
       <r>  -20.1829    1.0000 </r>
       <r>  -18.7662    1.0000 </r>
       <r>  -18.7446    1.0000 </r>
       <r>  -18.0633    1.0000 </r>
       <r>  -16.7563    1.0000 </r>
       <r>  -16.7331    1.0000 </r>
       <r>  -14.7466    1.0000 </r>
       <r>  -14.6287    1.0000 </r>
       <r>  -14.6235    1.0000 </r>
       <r>  -13.5053    1.0000 </r>
       <r>  -13.4995    1.0000 </r>
       <r>  -12.1894    1.0000 </r>
       <r>  -12.1751    1.0000 </r>
       <r>  -11.1092    1.0000 </r>
       <r>  -11.1024    1.0000 </r>
       <r>  -10.1049    1.0000 </r>
       <r>   -9.8491    1.0000 </r>
       <r>   -9.5003    1.0000 </r>
       <r>   -9.4822    1.0000 </r>
       <r>   -9.0486    1.0000 </r>
       <r>   -8.7929    1.0000 </r>
       <r>   -8.7562    1.0000 </r>
       <r>   -8.7465    1.0000 </r>
       <r>   -7.9528    1.0000 </r>
       <r>   -7.9340    1.0000 </r>
       <r>   -7.6852    1.0000 </r>
       <r>   -6.6026    1.0000 </r>
       <r>   -6.3849    1.0000 </r>
       <r>   -6.3679    1.0000 </r>
       <r>   -6.2365    1.0000 </r>
       <r>   -5.7718    1.0000 </r>
       <r>   -4.3045    1.0000 </r>
       <r>   -4.2920    1.0000 </r>
       <r>   -1.2876    0.0000 </r>
       <r>   -1.2800    0.0000 </r>
       <r>   -0.2244    0.0000 </r>
       <r>    0.7763    0.0000 </r>
       <r>    0.7942    0.0000 </r>
       <r>    0.8102    0.0000 </r>
       <r>    1.6062    0.0000 </r>
       <r>    1.9330    0.0000 </r>
       <r>    2.3340    0.0000 </r>
       <r>    2.8513    0.0000 </r>
      </set>
      <set comment="kpoint 8">
       <r>  -21.7753    1.0000 </r>
       <r>  -21.4028    1.0000 </r>
       <r>  -20.3046    1.0000 </r>
       <r>  -20.2901    1.0000 </r>
       <r>  -18.1672    1.0000 </r>
       <r>  -18.1499    1.0000 </r>
       <r>  -17.4902    1.0000 </r>
       <r>  -17.4725    1.0000 </r>
       <r>  -17.2278    1.0000 </r>
       <r>  -15.7484    1.0000 </r>
       <r>  -14.3299    1.0000 </r>
       <r>  -14.3140    1.0000 </r>
       <r>  -13.9574    1.0000 </r>
       <r>  -13.9426    1.0000 </r>
       <r>  -11.2707    1.0000 </r>
       <r>  -11.2485    1.0000 </r>
       <r>  -10.5992    1.0000 </r>
       <r>  -10.5895    1.0000 </r>
       <r>  -10.3412    1.0000 </r>
       <r>  -10.3157    1.0000 </r>
       <r>   -9.7878    1.0000 </r>
       <r>   -9.3482    1.0000 </r>
       <r>   -9.1437    1.0000 </r>
       <r>   -9.1017    1.0000 </r>
       <r>   -9.0838    1.0000 </r>
       <r>   -8.6495    1.0000 </r>
       <r>   -8.0689    1.0000 </r>
       <r>   -8.0544    1.0000 </r>
       <r>   -7.5428    1.0000 </r>
       <r>   -7.1645    1.0000 </r>
       <r>   -6.6582    1.0000 </r>
       <r>   -5.7558    1.0000 </r>
       <r>   -5.7395    1.0000 </r>
       <r>   -5.1957    1.0000 </r>
       <r>   -5.0553    1.0000 </r>
       <r>   -5.0388    1.0000 </r>
       <r>   -0.9746    0.0000 </r>
       <r>   -0.5962    0.0000 </r>
       <r>   -0.5729    0.0000 </r>
       <r>    0.0911    0.0000 </r>
       <r>    0.1147    0.0000 </r>
       <r>    1.1735    0.0000 </r>
       <r>    1.6817    0.0000 </r>
       <r>    1.9736    0.0000 </r>
       <r>    2.3054    0.0000 </r>
       <r>    2.4866    0.0000 </r>
      </set>
      <set comment="kpoint 9">
       <r>  -21.7753    1.0000 </r>
       <r>  -21.4029    1.0000 </r>
       <r>  -20.3059    1.0000 </r>
       <r>  -20.2884    1.0000 </r>
       <r>  -18.1685    1.0000 </r>
       <r>  -18.1486    1.0000 </r>
       <r>  -17.4924    1.0000 </r>
       <r>  -17.4715    1.0000 </r>
       <r>  -17.2256    1.0000 </r>
       <r>  -15.7531    1.0000 </r>
       <r>  -14.3266    1.0000 </r>
       <r>  -14.3148    1.0000 </r>
       <r>  -13.9543    1.0000 </r>
       <r>  -13.9434    1.0000 </r>
       <r>  -11.2708    1.0000 </r>
       <r>  -11.2507    1.0000 </r>
       <r>  -10.5928    1.0000 </r>
       <r>  -10.5848    1.0000 </r>
       <r>  -10.3410    1.0000 </r>
       <r>  -10.3185    1.0000 </r>
       <r>   -9.7877    1.0000 </r>
       <r>   -9.3479    1.0000 </r>
       <r>   -9.1402    1.0000 </r>
       <r>   -9.1065    1.0000 </r>
       <r>   -9.0908    1.0000 </r>
       <r>   -8.6556    1.0000 </r>
       <r>   -8.0707    1.0000 </r>
       <r>   -8.0538    1.0000 </r>
       <r>   -7.5504    1.0000 </r>
       <r>   -7.1570    1.0000 </r>
       <r>   -6.6503    1.0000 </r>
       <r>   -5.7561    1.0000 </r>
       <r>   -5.7400    1.0000 </r>
       <r>   -5.1919    1.0000 </r>
       <r>   -5.0546    1.0000 </r>
       <r>   -5.0397    1.0000 </r>
       <r>   -0.9829    0.0000 </r>
       <r>   -0.5927    0.0000 </r>
       <r>   -0.5741    0.0000 </r>
       <r>    0.0940    0.0000 </r>
       <r>    0.1135    0.0000 </r>
       <r>    1.1735    0.0000 </r>
       <r>    1.6817    0.0000 </r>
       <r>    1.9736    0.0000 </r>
       <r>    2.3054    0.0000 </r>
       <r>    2.4866    0.0000 </r>
      </set>
      <set comment="kpoint 10">
       <r>  -21.7751    1.0000 </r>
       <r>  -21.4027    1.0000 </r>
       <r>  -20.3078    1.0000 </r>
       <r>  -20.2875    1.0000 </r>
       <r>  -18.1693    1.0000 </r>
       <r>  -18.1471    1.0000 </r>
       <r>  -17.4925    1.0000 </r>
       <r>  -17.4697    1.0000 </r>
       <r>  -17.2319    1.0000 </r>
       <r>  -15.7358    1.0000 </r>
       <r>  -14.3272    1.0000 </r>
       <r>  -14.3222    1.0000 </r>
       <r>  -13.9561    1.0000 </r>
       <r>  -13.9510    1.0000 </r>
       <r>  -11.2651    1.0000 </r>
       <r>  -11.2478    1.0000 </r>
       <r>  -10.6133    1.0000 </r>
       <r>  -10.6064    1.0000 </r>
       <r>  -10.3338    1.0000 </r>
       <r>  -10.3150    1.0000 </r>
       <r>   -9.7882    1.0000 </r>
       <r>   -9.3490    1.0000 </r>
       <r>   -9.1564    1.0000 </r>
       <r>   -9.0797    1.0000 </r>
       <r>   -9.0715    1.0000 </r>
       <r>   -8.6316    1.0000 </r>
       <r>   -8.0693    1.0000 </r>
       <r>   -8.0503    1.0000 </r>
       <r>   -7.5220    1.0000 </r>
       <r>   -7.1839    1.0000 </r>
       <r>   -6.6816    1.0000 </r>
       <r>   -5.7541    1.0000 </r>
       <r>   -5.7381    1.0000 </r>
       <r>   -5.2084    1.0000 </r>
       <r>   -5.0531    1.0000 </r>
       <r>   -5.0388    1.0000 </r>
       <r>   -0.9537    0.0000 </r>
       <r>   -0.5918    0.0000 </r>
       <r>   -0.5807    0.0000 </r>
       <r>    0.0928    0.0000 </r>
       <r>    0.1073    0.0000 </r>
       <r>    1.1734    0.0000 </r>
       <r>    1.6816    0.0000 </r>
       <r>    1.9736    0.0000 </r>
       <r>    2.3054    0.0000 </r>
       <r>    2.4865    0.0000 </r>
      </set>
      <set comment="kpoint 11">
       <r>  -22.0955    1.0000 </r>
       <r>  -20.6161    1.0000 </r>
       <r>  -20.6064    1.0000 </r>
       <r>  -19.5259    1.0000 </r>
       <r>  -19.5125    1.0000 </r>
       <r>  -18.4602    1.0000 </r>
       <r>  -18.4498    1.0000 </r>
       <r>  -16.7781    1.0000 </r>
       <r>  -16.1682    1.0000 </r>
       <r>  -15.2270    1.0000 </r>
       <r>  -14.2660    1.0000 </r>
       <r>  -14.1682    1.0000 </r>
       <r>  -14.1547    1.0000 </r>
       <r>  -12.5966    1.0000 </r>
       <r>  -12.3053    1.0000 </r>
       <r>  -12.2953    1.0000 </r>
       <r>  -12.2755    1.0000 </r>
       <r>  -10.4998    1.0000 </r>
       <r>  -10.4806    1.0000 </r>
       <r>  -10.1683    1.0000 </r>
       <r>   -9.1996    1.0000 </r>
       <r>   -9.1795    1.0000 </r>
       <r>   -9.1220    1.0000 </r>
       <r>   -9.1102    1.0000 </r>
       <r>   -8.4297    1.0000 </r>
       <r>   -8.4220    1.0000 </r>
       <r>   -8.0786    1.0000 </r>
       <r>   -8.0606    1.0000 </r>
       <r>   -7.1995    1.0000 </r>
       <r>   -7.1873    1.0000 </r>
       <r>   -6.4291    1.0000 </r>
       <r>   -6.1096    1.0000 </r>
       <r>   -6.1051    1.0000 </r>
       <r>   -6.0974    1.0000 </r>
       <r>   -4.2516    1.0000 </r>
       <r>   -3.9097    1.0000 </r>
       <r>   -1.6964    0.0000 </r>
       <r>   -1.2749    0.0000 </r>
       <r>    0.2609    0.0000 </r>
       <r>    0.2717    0.0000 </r>
       <r>    0.7376    0.0000 </r>
       <r>    1.5327    0.0000 </r>
       <r>    1.8585    0.0000 </r>
       <r>    2.0117    0.0000 </r>
       <r>    2.0278    0.0000 </r>
       <r>    2.7776    0.0000 </r>
      </set>
      <set comment="kpoint 12">
       <r>  -22.0954    1.0000 </r>
       <r>  -20.6190    1.0000 </r>
       <r>  -20.6033    1.0000 </r>
       <r>  -19.5303    1.0000 </r>
       <r>  -19.5088    1.0000 </r>
       <r>  -18.4630    1.0000 </r>
       <r>  -18.4468    1.0000 </r>
       <r>  -16.7792    1.0000 </r>
       <r>  -16.1598    1.0000 </r>
       <r>  -15.2441    1.0000 </r>
       <r>  -14.2537    1.0000 </r>
       <r>  -14.1701    1.0000 </r>
       <r>  -14.1441    1.0000 </r>
       <r>  -12.6073    1.0000 </r>
       <r>  -12.3206    1.0000 </r>
       <r>  -12.3016    1.0000 </r>
       <r>  -12.2656    1.0000 </r>
       <r>  -10.5033    1.0000 </r>
       <r>  -10.4679    1.0000 </r>
       <r>  -10.1685    1.0000 </r>
       <r>   -9.1892    1.0000 </r>
       <r>   -9.1632    1.0000 </r>
       <r>   -9.1335    1.0000 </r>
       <r>   -9.1115    1.0000 </r>
       <r>   -8.4325    1.0000 </r>
       <r>   -8.4200    1.0000 </r>
       <r>   -8.0938    1.0000 </r>
       <r>   -8.0576    1.0000 </r>
       <r>   -7.2000    1.0000 </r>
       <r>   -7.1804    1.0000 </r>
       <r>   -6.4037    1.0000 </r>
       <r>   -6.1357    1.0000 </r>
       <r>   -6.1126    1.0000 </r>
       <r>   -6.0979    1.0000 </r>
       <r>   -4.2596    1.0000 </r>
       <r>   -3.8965    1.0000 </r>
       <r>   -1.7143    0.0000 </r>
       <r>   -1.2626    0.0000 </r>
       <r>    0.2627    0.0000 </r>
       <r>    0.2873    0.0000 </r>
       <r>    0.7375    0.0000 </r>
       <r>    1.5326    0.0000 </r>
       <r>    1.8585    0.0000 </r>
       <r>    1.9966    0.0000 </r>
       <r>    2.0231    0.0000 </r>
       <r>    2.7776    0.0000 </r>
      </set>
      <set comment="kpoint 13">
       <r>  -22.0954    1.0000 </r>
       <r>  -20.6177    1.0000 </r>
       <r>  -20.6046    1.0000 </r>
       <r>  -19.5287    1.0000 </r>
       <r>  -19.5108    1.0000 </r>
       <r>  -18.4617    1.0000 </r>
       <r>  -18.4480    1.0000 </r>
       <r>  -16.7794    1.0000 </r>
       <r>  -16.1569    1.0000 </r>
       <r>  -15.2504    1.0000 </r>
       <r>  -14.2500    1.0000 </r>
       <r>  -14.1667    1.0000 </r>
       <r>  -14.1436    1.0000 </r>
       <r>  -12.6114    1.0000 </r>
       <r>  -12.3199    1.0000 </r>
       <r>  -12.3087    1.0000 </r>
       <r>  -12.2631    1.0000 </r>
       <r>  -10.4981    1.0000 </r>
       <r>  -10.4697    1.0000 </r>
       <r>  -10.1685    1.0000 </r>
       <r>   -9.1801    1.0000 </r>
       <r>   -9.1670    1.0000 </r>
       <r>   -9.1306    1.0000 </r>
       <r>   -9.1146    1.0000 </r>
       <r>   -8.4316    1.0000 </r>
       <r>   -8.4212    1.0000 </r>
       <r>   -8.0921    1.0000 </r>
       <r>   -8.0636    1.0000 </r>
       <r>   -7.1972    1.0000 </r>
       <r>   -7.1809    1.0000 </r>
       <r>   -6.3935    1.0000 </r>
       <r>   -6.1462    1.0000 </r>
       <r>   -6.1126    1.0000 </r>
       <r>   -6.1008    1.0000 </r>
       <r>   -4.2624    1.0000 </r>
       <r>   -3.8917    1.0000 </r>
       <r>   -1.7207    0.0000 </r>
       <r>   -1.2582    0.0000 </r>
       <r>    0.2685    0.0000 </r>
       <r>    0.2878    0.0000 </r>
       <r>    0.7375    0.0000 </r>
       <r>    1.5326    0.0000 </r>
       <r>    1.8585    0.0000 </r>
       <r>    1.9953    0.0000 </r>
       <r>    2.0171    0.0000 </r>
       <r>    2.7776    0.0000 </r>
      </set>
      <set comment="kpoint 14">
       <r>  -21.8819    1.0000 </r>
       <r>  -21.1380    1.0000 </r>
       <r>  -20.7689    1.0000 </r>
       <r>  -19.6744    1.0000 </r>
       <r>  -18.9579    1.0000 </r>
       <r>  -17.9169    1.0000 </r>
       <r>  -17.5950    1.0000 </r>
       <r>  -17.5709    1.0000 </r>
       <r>  -16.6746    1.0000 </r>
       <r>  -15.2595    1.0000 </r>
       <r>  -15.2360    1.0000 </r>
       <r>  -14.6407    1.0000 </r>
       <r>  -13.7367    1.0000 </r>
       <r>  -12.8124    1.0000 </r>
       <r>  -11.8891    1.0000 </r>
       <r>  -11.6748    1.0000 </r>
       <r>  -11.3972    1.0000 </r>
       <r>  -10.0514    1.0000 </r>
       <r>   -9.9210    1.0000 </r>
       <r>   -9.9141    1.0000 </r>
       <r>   -9.7034    1.0000 </r>
       <r>   -9.6389    1.0000 </r>
       <r>   -9.2818    1.0000 </r>
       <r>   -9.2616    1.0000 </r>
       <r>   -9.0377    1.0000 </r>
       <r>   -8.6067    1.0000 </r>
       <r>   -8.2539    1.0000 </r>
       <r>   -7.5786    1.0000 </r>
       <r>   -7.3557    1.0000 </r>
       <r>   -7.1573    1.0000 </r>
       <r>   -6.5710    1.0000 </r>
       <r>   -6.5303    1.0000 </r>
       <r>   -5.5763    1.0000 </r>
       <r>   -5.3829    1.0000 </r>
       <r>   -5.0687    1.0000 </r>
       <r>   -4.4426    1.0000 </r>
       <r>   -1.2816    0.0000 </r>
       <r>   -0.6902    0.0000 </r>
       <r>   -0.4359    0.0000 </r>
       <r>   -0.3074    0.0000 </r>
       <r>    1.0283    0.0000 </r>
       <r>    1.2336    0.0000 </r>
       <r>    1.8268    0.0000 </r>
       <r>    2.0446    0.0000 </r>
       <r>    2.1564    0.0000 </r>
       <r>    2.4077    0.0000 </r>
      </set>
      <set comment="kpoint 15">
       <r>  -21.8818    1.0000 </r>
       <r>  -21.1383    1.0000 </r>
       <r>  -20.7686    1.0000 </r>
       <r>  -19.6745    1.0000 </r>
       <r>  -18.9584    1.0000 </r>
       <r>  -17.9173    1.0000 </r>
       <r>  -17.5965    1.0000 </r>
       <r>  -17.5693    1.0000 </r>
       <r>  -16.6698    1.0000 </r>
       <r>  -15.2669    1.0000 </r>
       <r>  -15.2466    1.0000 </r>
       <r>  -14.6273    1.0000 </r>
       <r>  -13.7218    1.0000 </r>
       <r>  -12.8260    1.0000 </r>
       <r>  -11.9051    1.0000 </r>
       <r>  -11.6804    1.0000 </r>
       <r>  -11.3854    1.0000 </r>
       <r>  -10.0353    1.0000 </r>
       <r>   -9.9143    1.0000 </r>
       <r>   -9.9043    1.0000 </r>
       <r>   -9.7201    1.0000 </r>
       <r>   -9.6323    1.0000 </r>
       <r>   -9.2824    1.0000 </r>
       <r>   -9.2678    1.0000 </r>
       <r>   -9.0369    1.0000 </r>
       <r>   -8.6079    1.0000 </r>
       <r>   -8.2736    1.0000 </r>
       <r>   -7.5656    1.0000 </r>
       <r>   -7.3552    1.0000 </r>
       <r>   -7.1458    1.0000 </r>
       <r>   -6.5653    1.0000 </r>
       <r>   -6.5422    1.0000 </r>
       <r>   -5.5882    1.0000 </r>
       <r>   -5.3798    1.0000 </r>
       <r>   -5.0765    1.0000 </r>
       <r>   -4.4289    1.0000 </r>
       <r>   -1.3026    0.0000 </r>
       <r>   -0.6962    0.0000 </r>
       <r>   -0.4194    0.0000 </r>
       <r>   -0.2855    0.0000 </r>
       <r>    1.0282    0.0000 </r>
       <r>    1.2178    0.0000 </r>
       <r>    1.8267    0.0000 </r>
       <r>    2.0447    0.0000 </r>
       <r>    2.1564    0.0000 </r>
       <r>    2.4064    0.0000 </r>
      </set>
      <set comment="kpoint 16">
       <r>  -21.8817    1.0000 </r>
       <r>  -21.1379    1.0000 </r>
       <r>  -20.7690    1.0000 </r>
       <r>  -19.6749    1.0000 </r>
       <r>  -18.9582    1.0000 </r>
       <r>  -17.9166    1.0000 </r>
       <r>  -17.5977    1.0000 </r>
       <r>  -17.5699    1.0000 </r>
       <r>  -16.6686    1.0000 </r>
       <r>  -15.2587    1.0000 </r>
       <r>  -15.2444    1.0000 </r>
       <r>  -14.6364    1.0000 </r>
       <r>  -13.7236    1.0000 </r>
       <r>  -12.8252    1.0000 </r>
       <r>  -11.9034    1.0000 </r>
       <r>  -11.6928    1.0000 </r>
       <r>  -11.3828    1.0000 </r>
       <r>  -10.0362    1.0000 </r>
       <r>   -9.9253    1.0000 </r>
       <r>   -9.9145    1.0000 </r>
       <r>   -9.7096    1.0000 </r>
       <r>   -9.6172    1.0000 </r>
       <r>   -9.2940    1.0000 </r>
       <r>   -9.2504    1.0000 </r>
       <r>   -9.0384    1.0000 </r>
       <r>   -8.6060    1.0000 </r>
       <r>   -8.2486    1.0000 </r>
       <r>   -7.5925    1.0000 </r>
       <r>   -7.3521    1.0000 </r>
       <r>   -7.1238    1.0000 </r>
       <r>   -6.5666    1.0000 </r>
       <r>   -6.5655    1.0000 </r>
       <r>   -5.5809    1.0000 </r>
       <r>   -5.3942    1.0000 </r>
       <r>   -5.0764    1.0000 </r>
       <r>   -4.4266    1.0000 </r>
       <r>   -1.3058    0.0000 </r>
       <r>   -0.6707    0.0000 </r>
       <r>   -0.4195    0.0000 </r>
       <r>   -0.2993    0.0000 </r>
       <r>    1.0282    0.0000 </r>
       <r>    1.2218    0.0000 </r>
       <r>    1.8267    0.0000 </r>
       <r>    2.0446    0.0000 </r>
       <r>    2.1564    0.0000 </r>
       <r>    2.3949    0.0000 </r>
      </set>
      <set comment="kpoint 17">
       <r>  -21.8817    1.0000 </r>
       <r>  -21.1379    1.0000 </r>
       <r>  -20.7691    1.0000 </r>
       <r>  -19.6749    1.0000 </r>
       <r>  -18.9579    1.0000 </r>
       <r>  -17.9167    1.0000 </r>
       <r>  -17.5948    1.0000 </r>
       <r>  -17.5728    1.0000 </r>
       <r>  -16.6701    1.0000 </r>
       <r>  -15.2557    1.0000 </r>
       <r>  -15.2425    1.0000 </r>
       <r>  -14.6399    1.0000 </r>
       <r>  -13.7284    1.0000 </r>
       <r>  -12.8209    1.0000 </r>
       <r>  -11.8978    1.0000 </r>
       <r>  -11.6903    1.0000 </r>
       <r>  -11.3869    1.0000 </r>
       <r>  -10.0414    1.0000 </r>
       <r>   -9.9293    1.0000 </r>
       <r>   -9.9145    1.0000 </r>
       <r>   -9.7043    1.0000 </r>
       <r>   -9.6214    1.0000 </r>
       <r>   -9.2945    1.0000 </r>
       <r>   -9.2477    1.0000 </r>
       <r>   -9.0385    1.0000 </r>
       <r>   -8.6057    1.0000 </r>
       <r>   -8.2447    1.0000 </r>
       <r>   -7.5943    1.0000 </r>
       <r>   -7.3526    1.0000 </r>
       <r>   -7.1297    1.0000 </r>
       <r>   -6.5683    1.0000 </r>
       <r>   -6.5593    1.0000 </r>
       <r>   -5.5776    1.0000 </r>
       <r>   -5.3938    1.0000 </r>
       <r>   -5.0740    1.0000 </r>
       <r>   -4.4314    1.0000 </r>
       <r>   -1.2987    0.0000 </r>
       <r>   -0.6703    0.0000 </r>
       <r>   -0.4262    0.0000 </r>
       <r>   -0.3046    0.0000 </r>
       <r>    1.0282    0.0000 </r>
       <r>    1.2266    0.0000 </r>
       <r>    1.8267    0.0000 </r>
       <r>    2.0446    0.0000 </r>
       <r>    2.1564    0.0000 </r>
       <r>    2.3964    0.0000 </r>
      </set>
      <set comment="kpoint 18">
       <r>  -21.8819    1.0000 </r>
       <r>  -21.1381    1.0000 </r>
       <r>  -20.7688    1.0000 </r>
       <r>  -19.6742    1.0000 </r>
       <r>  -18.9581    1.0000 </r>
       <r>  -17.9169    1.0000 </r>
       <r>  -17.5974    1.0000 </r>
       <r>  -17.5682    1.0000 </r>
       <r>  -16.6746    1.0000 </r>
       <r>  -15.2620    1.0000 </r>
       <r>  -15.2375    1.0000 </r>
       <r>  -14.6373    1.0000 </r>
       <r>  -13.7348    1.0000 </r>
       <r>  -12.8139    1.0000 </r>
       <r>  -11.8908    1.0000 </r>
       <r>  -11.6721    1.0000 </r>
       <r>  -11.3971    1.0000 </r>
       <r>  -10.0493    1.0000 </r>
       <r>   -9.9144    1.0000 </r>
       <r>   -9.9141    1.0000 </r>
       <r>   -9.7084    1.0000 </r>
       <r>   -9.6415    1.0000 </r>
       <r>   -9.2816    1.0000 </r>
       <r>   -9.2637    1.0000 </r>
       <r>   -9.0373    1.0000 </r>
       <r>   -8.6072    1.0000 </r>
       <r>   -8.2618    1.0000 </r>
       <r>   -7.5708    1.0000 </r>
       <r>   -7.3564    1.0000 </r>
       <r>   -7.1612    1.0000 </r>
       <r>   -6.5702    1.0000 </r>
       <r>   -6.5261    1.0000 </r>
       <r>   -5.5789    1.0000 </r>
       <r>   -5.3794    1.0000 </r>
       <r>   -5.0693    1.0000 </r>
       <r>   -4.4420    1.0000 </r>
       <r>   -1.2826    0.0000 </r>
       <r>   -0.6972    0.0000 </r>
       <r>   -0.4337    0.0000 </r>
       <r>   -0.3025    0.0000 </r>
       <r>    1.0283    0.0000 </r>
       <r>    1.2312    0.0000 </r>
       <r>    1.8268    0.0000 </r>
       <r>    2.0447    0.0000 </r>
       <r>    2.1564    0.0000 </r>
       <r>    2.5527    0.0000 </r>
      </set>
      <set comment="kpoint 19">
       <r>  -21.8818    1.0000 </r>
       <r>  -21.1382    1.0000 </r>
       <r>  -20.7687    1.0000 </r>
       <r>  -19.6747    1.0000 </r>
       <r>  -18.9585    1.0000 </r>
       <r>  -17.9174    1.0000 </r>
       <r>  -17.5951    1.0000 </r>
       <r>  -17.5709    1.0000 </r>
       <r>  -16.6683    1.0000 </r>
       <r>  -15.2640    1.0000 </r>
       <r>  -15.2504    1.0000 </r>
       <r>  -14.6272    1.0000 </r>
       <r>  -13.7187    1.0000 </r>
       <r>  -12.8291    1.0000 </r>
       <r>  -11.9083    1.0000 </r>
       <r>  -11.6857    1.0000 </r>
       <r>  -11.3821    1.0000 </r>
       <r>  -10.0309    1.0000 </r>
       <r>   -9.9144    1.0000 </r>
       <r>   -9.9074    1.0000 </r>
       <r>   -9.7217    1.0000 </r>
       <r>   -9.6255    1.0000 </r>
       <r>   -9.2820    1.0000 </r>
       <r>   -9.2677    1.0000 </r>
       <r>   -9.0372    1.0000 </r>
       <r>   -8.6076    1.0000 </r>
       <r>   -8.2701    1.0000 </r>
       <r>   -7.5712    1.0000 </r>
       <r>   -7.3540    1.0000 </r>
       <r>   -7.1361    1.0000 </r>
       <r>   -6.5644    1.0000 </r>
       <r>   -6.5526    1.0000 </r>
       <r>   -5.5888    1.0000 </r>
       <r>   -5.3836    1.0000 </r>
       <r>   -5.0783    1.0000 </r>
       <r>   -4.4248    1.0000 </r>
       <r>   -1.3087    0.0000 </r>
       <r>   -0.6886    0.0000 </r>
       <r>   -0.4178    0.0000 </r>
       <r>   -0.2831    0.0000 </r>
       <r>    1.0282    0.0000 </r>
       <r>    1.2154    0.0000 </r>
       <r>    1.8267    0.0000 </r>
       <r>    2.0447    0.0000 </r>
       <r>    2.1564    0.0000 </r>
       <r>    2.4023    0.0000 </r>
      </set>
      <set comment="kpoint 20">
       <r>  -21.5699    1.0000 </r>
       <r>  -21.5546    1.0000 </r>
       <r>  -20.8215    1.0000 </r>
       <r>  -19.7263    1.0000 </r>
       <r>  -18.3177    1.0000 </r>
       <r>  -18.2949    1.0000 </r>
       <r>  -17.3195    1.0000 </r>
       <r>  -17.2960    1.0000 </r>
       <r>  -16.9855    1.0000 </r>
       <r>  -15.9424    1.0000 </r>
       <r>  -15.0198    1.0000 </r>
       <r>  -14.9976    1.0000 </r>
       <r>  -13.2940    1.0000 </r>
       <r>  -13.2697    1.0000 </r>
       <r>  -11.3552    1.0000 </r>
       <r>  -11.0006    1.0000 </r>
       <r>  -10.9758    1.0000 </r>
       <r>  -10.5115    1.0000 </r>
       <r>  -10.4905    1.0000 </r>
       <r>   -9.9093    1.0000 </r>
       <r>   -9.6312    1.0000 </r>
       <r>   -9.5421    1.0000 </r>
       <r>   -9.5296    1.0000 </r>
       <r>   -9.3327    1.0000 </r>
       <r>   -8.6676    1.0000 </r>
       <r>   -8.4234    1.0000 </r>
       <r>   -8.1444    1.0000 </r>
       <r>   -8.1125    1.0000 </r>
       <r>   -7.4097    1.0000 </r>
       <r>   -7.0686    1.0000 </r>
       <r>   -7.0282    1.0000 </r>
       <r>   -5.8662    1.0000 </r>
       <r>   -5.8455    1.0000 </r>
       <r>   -5.0607    1.0000 </r>
       <r>   -5.0241    1.0000 </r>
       <r>   -5.0014    1.0000 </r>
       <r>   -1.0939    0.0000 </r>
       <r>   -0.8367    0.0000 </r>
       <r>   -0.8071    0.0000 </r>
       <r>    0.3979    0.0000 </r>
       <r>    0.4233    0.0000 </r>
       <r>    1.4632    0.0000 </r>
       <r>    1.4650    0.0000 </r>
       <r>    2.2668    0.0000 </r>
       <r>    2.2674    0.0000 </r>
       <r>    2.6032    0.0000 </r>
      </set>
      <set comment="kpoint 21">
       <r>  -21.5686    1.0000 </r>
       <r>  -21.5559    1.0000 </r>
       <r>  -20.8214    1.0000 </r>
       <r>  -19.7261    1.0000 </r>
       <r>  -18.3157    1.0000 </r>
       <r>  -18.2970    1.0000 </r>
       <r>  -17.3179    1.0000 </r>
       <r>  -17.2988    1.0000 </r>
       <r>  -16.9822    1.0000 </r>
       <r>  -15.9483    1.0000 </r>
       <r>  -15.0156    1.0000 </r>
       <r>  -14.9981    1.0000 </r>
       <r>  -13.2911    1.0000 </r>
       <r>  -13.2721    1.0000 </r>
       <r>  -11.3495    1.0000 </r>
       <r>  -10.9976    1.0000 </r>
       <r>  -10.9793    1.0000 </r>
       <r>  -10.5111    1.0000 </r>
       <r>  -10.4944    1.0000 </r>
       <r>   -9.9159    1.0000 </r>
       <r>   -9.6240    1.0000 </r>
       <r>   -9.5409    1.0000 </r>
       <r>   -9.5305    1.0000 </r>
       <r>   -9.3284    1.0000 </r>
       <r>   -8.6680    1.0000 </r>
       <r>   -8.4312    1.0000 </r>
       <r>   -8.1477    1.0000 </r>
       <r>   -8.1223    1.0000 </r>
       <r>   -7.4106    1.0000 </r>
       <r>   -7.0584    1.0000 </r>
       <r>   -7.0238    1.0000 </r>
       <r>   -5.8640    1.0000 </r>
       <r>   -5.8473    1.0000 </r>
       <r>   -5.0574    1.0000 </r>
       <r>   -5.0231    1.0000 </r>
       <r>   -5.0035    1.0000 </r>
       <r>   -1.1024    0.0000 </r>
       <r>   -0.8304    0.0000 </r>
       <r>   -0.8081    0.0000 </r>
       <r>    0.4003    0.0000 </r>
       <r>    0.4199    0.0000 </r>
       <r>    1.4634    0.0000 </r>
       <r>    1.4648    0.0000 </r>
       <r>    2.2669    0.0000 </r>
       <r>    2.2674    0.0000 </r>
       <r>    2.4861    0.0000 </r>
      </set>
      <set comment="kpoint 22">
       <r>  -21.5668    1.0000 </r>
       <r>  -21.5574    1.0000 </r>
       <r>  -20.8218    1.0000 </r>
       <r>  -19.7267    1.0000 </r>
       <r>  -18.3131    1.0000 </r>
       <r>  -18.2991    1.0000 </r>
       <r>  -17.3141    1.0000 </r>
       <r>  -17.2996    1.0000 </r>
       <r>  -16.9925    1.0000 </r>
       <r>  -15.9268    1.0000 </r>
       <r>  -15.0189    1.0000 </r>
       <r>  -15.0078    1.0000 </r>
       <r>  -13.2885    1.0000 </r>
       <r>  -13.2768    1.0000 </r>
       <r>  -11.3709    1.0000 </r>
       <r>  -10.9925    1.0000 </r>
       <r>  -10.9825    1.0000 </r>
       <r>  -10.5007    1.0000 </r>
       <r>  -10.4913    1.0000 </r>
       <r>   -9.8919    1.0000 </r>
       <r>   -9.6496    1.0000 </r>
       <r>   -9.5403    1.0000 </r>
       <r>   -9.5325    1.0000 </r>
       <r>   -9.3456    1.0000 </r>
       <r>   -8.6663    1.0000 </r>
       <r>   -8.4031    1.0000 </r>
       <r>   -8.1200    1.0000 </r>
       <r>   -8.0993    1.0000 </r>
       <r>   -7.4072    1.0000 </r>
       <r>   -7.0810    1.0000 </r>
       <r>   -7.0567    1.0000 </r>
       <r>   -5.8623    1.0000 </r>
       <r>   -5.8503    1.0000 </r>
       <r>   -5.0743    1.0000 </r>
       <r>   -5.0149    1.0000 </r>
       <r>   -5.0030    1.0000 </r>
       <r>   -1.0723    0.0000 </r>
       <r>   -0.8335    0.0000 </r>
       <r>   -0.8225    0.0000 </r>
       <r>    0.4060    0.0000 </r>
       <r>    0.4177    0.0000 </r>
       <r>    1.4635    0.0000 </r>
       <r>    1.4646    0.0000 </r>
       <r>    2.2668    0.0000 </r>
       <r>    2.2672    0.0000 </r>
       <r>    2.4852    0.0000 </r>
      </set>
      <set comment="kpoint 23">
       <r>  -21.6157    1.0000 </r>
       <r>  -21.2487    1.0000 </r>
       <r>  -21.2388    1.0000 </r>
       <r>  -19.0670    1.0000 </r>
       <r>  -19.0532    1.0000 </r>
       <r>  -18.3559    1.0000 </r>
       <r>  -17.0926    1.0000 </r>
       <r>  -17.0824    1.0000 </r>
       <r>  -16.7170    1.0000 </r>
       <r>  -15.6657    1.0000 </r>
       <r>  -15.6244    1.0000 </r>
       <r>  -15.6126    1.0000 </r>
       <r>  -12.9287    1.0000 </r>
       <r>  -12.2611    1.0000 </r>
       <r>  -12.2500    1.0000 </r>
       <r>  -11.3426    1.0000 </r>
       <r>  -10.5739    1.0000 </r>
       <r>  -10.5600    1.0000 </r>
       <r>  -10.5494    1.0000 </r>
       <r>   -9.8197    1.0000 </r>
       <r>   -9.8096    1.0000 </r>
       <r>   -9.5985    1.0000 </r>
       <r>   -9.1652    1.0000 </r>
       <r>   -9.1573    1.0000 </r>
       <r>   -8.8298    1.0000 </r>
       <r>   -8.8084    1.0000 </r>
       <r>   -7.9007    1.0000 </r>
       <r>   -7.6995    1.0000 </r>
       <r>   -7.6783    1.0000 </r>
       <r>   -7.0620    1.0000 </r>
       <r>   -6.6729    1.0000 </r>
       <r>   -6.6607    1.0000 </r>
       <r>   -5.8899    1.0000 </r>
       <r>   -5.0043    1.0000 </r>
       <r>   -4.9953    1.0000 </r>
       <r>   -4.6833    1.0000 </r>
       <r>   -1.2117    0.0000 </r>
       <r>   -1.0388    0.0000 </r>
       <r>   -1.0276    0.0000 </r>
       <r>    0.5195    0.0000 </r>
       <r>    1.3917    0.0000 </r>
       <r>    1.4810    0.0000 </r>
       <r>    1.4954    0.0000 </r>
       <r>    1.8995    0.0000 </r>
       <r>    1.9006    0.0000 </r>
       <r>    2.1939    0.0000 </r>
      </set>
      <set comment="kpoint 24">
       <r>  -21.6155    1.0000 </r>
       <r>  -21.2516    1.0000 </r>
       <r>  -21.2360    1.0000 </r>
       <r>  -19.0713    1.0000 </r>
       <r>  -19.0493    1.0000 </r>
       <r>  -18.3557    1.0000 </r>
       <r>  -17.0980    1.0000 </r>
       <r>  -17.0811    1.0000 </r>
       <r>  -16.7096    1.0000 </r>
       <r>  -15.6811    1.0000 </r>
       <r>  -15.6239    1.0000 </r>
       <r>  -15.6006    1.0000 </r>
       <r>  -12.9155    1.0000 </r>
       <r>  -12.2765    1.0000 </r>
       <r>  -12.2547    1.0000 </r>
       <r>  -11.3574    1.0000 </r>
       <r>  -10.5637    1.0000 </r>
       <r>  -10.5535    1.0000 </r>
       <r>  -10.5319    1.0000 </r>
       <r>   -9.8318    1.0000 </r>
       <r>   -9.8100    1.0000 </r>
       <r>   -9.5989    1.0000 </r>
       <r>   -9.1673    1.0000 </r>
       <r>   -9.1548    1.0000 </r>
       <r>   -8.8444    1.0000 </r>
       <r>   -8.8008    1.0000 </r>
       <r>   -7.8794    1.0000 </r>
       <r>   -7.7079    1.0000 </r>
       <r>   -7.6608    1.0000 </r>
       <r>   -7.0864    1.0000 </r>
       <r>   -6.6743    1.0000 </r>
       <r>   -6.6545    1.0000 </r>
       <r>   -5.8945    1.0000 </r>
       <r>   -5.0171    1.0000 </r>
       <r>   -4.9961    1.0000 </r>
       <r>   -4.6699    1.0000 </r>
       <r>   -1.2324    0.0000 </r>
       <r>   -1.0374    0.0000 </r>
       <r>   -1.0067    0.0000 </r>
       <r>    0.5308    0.0000 </r>
       <r>    1.3916    0.0000 </r>
       <r>    1.4683    0.0000 </r>
       <r>    1.4939    0.0000 </r>
       <r>    1.8992    0.0000 </r>
       <r>    1.9010    0.0000 </r>
       <r>    2.1939    0.0000 </r>
      </set>
      <set comment="kpoint 25">
       <r>  -21.6155    1.0000 </r>
       <r>  -21.2503    1.0000 </r>
       <r>  -21.2373    1.0000 </r>
       <r>  -19.0696    1.0000 </r>
       <r>  -19.0513    1.0000 </r>
       <r>  -18.3554    1.0000 </r>
       <r>  -17.0973    1.0000 </r>
       <r>  -17.0832    1.0000 </r>
       <r>  -16.7070    1.0000 </r>
       <r>  -15.6861    1.0000 </r>
       <r>  -15.6199    1.0000 </r>
       <r>  -15.6007    1.0000 </r>
       <r>  -12.9106    1.0000 </r>
       <r>  -12.2778    1.0000 </r>
       <r>  -12.2605    1.0000 </r>
       <r>  -11.3628    1.0000 </r>
       <r>  -10.5557    1.0000 </r>
       <r>  -10.5501    1.0000 </r>
       <r>  -10.5309    1.0000 </r>
       <r>   -9.8317    1.0000 </r>
       <r>   -9.8145    1.0000 </r>
       <r>   -9.5991    1.0000 </r>
       <r>   -9.1662    1.0000 </r>
       <r>   -9.1557    1.0000 </r>
       <r>   -8.8412    1.0000 </r>
       <r>   -8.8072    1.0000 </r>
       <r>   -7.8707    1.0000 </r>
       <r>   -7.7006    1.0000 </r>
       <r>   -7.6653    1.0000 </r>
       <r>   -7.0952    1.0000 </r>
       <r>   -6.6717    1.0000 </r>
       <r>   -6.6554    1.0000 </r>
       <r>   -5.8961    1.0000 </r>
       <r>   -5.0171    1.0000 </r>
       <r>   -5.0010    1.0000 </r>
       <r>   -4.6651    1.0000 </r>
       <r>   -1.2399    0.0000 </r>
       <r>   -1.0297    0.0000 </r>
       <r>   -1.0064    0.0000 </r>
       <r>    0.5348    0.0000 </r>
       <r>    1.3916    0.0000 </r>
       <r>    1.4682    0.0000 </r>
       <r>    1.4889    0.0000 </r>
       <r>    1.8994    0.0000 </r>
       <r>    1.9009    0.0000 </r>
       <r>    2.1939    0.0000 </r>
      </set>
     </set>
    </set>
   </array>
  </eigenvalues>
  <separator name="orbital magnetization" >
   <v name="MAGDIPOLOUT">      0.00000000      0.00000000      0.00000000</v>
  </separator>
  <dos>
   <i name="efermi">     -2.75520781 </i>
   <total>
    <array>
     <dimension dim="1">gridpoints</dimension>
     <dimension dim="2">spin</dimension>
     <field>energy</field>
     <field>total</field>
     <field>integrated</field>
     <set>
      <set comment="spin 1">
       <r>   -23.5114     0.0000     0.0000 </r>
       <r>   -23.4194     0.0000     0.0000 </r>
       <r>   -23.3273     0.0000     0.0000 </r>
       <r>   -23.2352     0.0000     0.0000 </r>
       <r>   -23.1432     0.0000     0.0000 </r>
       <r>   -23.0511     0.0000     0.0000 </r>
       <r>   -22.9591     0.0000     0.0000 </r>
       <r>   -22.8670     0.0000     0.0000 </r>
       <r>   -22.7749     0.0000     0.0000 </r>
       <r>   -22.6829     0.0000     0.0000 </r>
       <r>   -22.5908     0.0000     0.0000 </r>
       <r>   -22.4988     0.0000     0.0000 </r>
       <r>   -22.4067     0.0000     0.0000 </r>
       <r>   -22.3146     0.0236     0.0022 </r>
       <r>   -22.2226     1.1018     0.1036 </r>
       <r>   -22.1305     2.3660     0.3214 </r>
       <r>   -22.0385     3.5657     0.6497 </r>
       <r>   -21.9464     1.5378     0.7912 </r>
       <r>   -21.8543     4.0197     1.1613 </r>
       <r>   -21.7623     2.8376     1.4225 </r>
       <r>   -21.6702     1.1179     1.5254 </r>
       <r>   -21.5782     3.8575     1.8806 </r>
       <r>   -21.4861     3.8912     2.2388 </r>
       <r>   -21.3940     1.6567     2.3913 </r>
       <r>   -21.3020     1.3448     2.5151 </r>
       <r>   -21.2099     4.2364     2.9051 </r>
       <r>   -21.1179     4.6196     3.3304 </r>
       <r>   -21.0258     1.5127     3.4696 </r>
       <r>   -20.9337     1.1233     3.5731 </r>
       <r>   -20.8417     2.3747     3.7917 </r>
       <r>   -20.7496     5.5242     4.3002 </r>
       <r>   -20.6575     2.1362     4.4969 </r>
       <r>   -20.5655     4.2579     4.8889 </r>
       <r>   -20.4734     0.5422     4.9388 </r>
       <r>   -20.3814     0.5429     4.9888 </r>
       <r>   -20.2893     5.1469     5.4626 </r>
       <r>   -20.1972     4.6785     5.8933 </r>
       <r>   -20.1052     2.8920     6.1595 </r>
       <r>   -20.0131     1.1886     6.2690 </r>
       <r>   -19.9211     3.9530     6.6329 </r>
       <r>   -19.8290     0.2242     6.6535 </r>
       <r>   -19.7369     1.3657     6.7793 </r>
       <r>   -19.6449     7.5473     7.4741 </r>
       <r>   -19.5528     2.6787     7.7207 </r>
       <r>   -19.4608     4.0788     8.0962 </r>
       <r>   -19.3687     0.2951     8.1233 </r>
       <r>   -19.2766     1.8482     8.2935 </r>
       <r>   -19.1846     3.3768     8.6043 </r>
       <r>   -19.0925     1.0916     8.7048 </r>
       <r>   -19.0005     4.6710     9.1348 </r>
       <r>   -18.9084     5.7941     9.6682 </r>
       <r>   -18.8163     2.0708     9.8589 </r>
       <r>   -18.7243     4.0277    10.2297 </r>
       <r>   -18.6322     1.0501    10.3263 </r>
       <r>   -18.5402     0.0495    10.3309 </r>
       <r>   -18.4481     3.0233    10.6092 </r>
       <r>   -18.3560     4.0144    10.9788 </r>
       <r>   -18.2640     5.5529    11.4900 </r>
       <r>   -18.1719     2.5654    11.7262 </r>
       <r>   -18.0799     4.1729    12.1103 </r>
       <r>   -17.9878     1.9805    12.2927 </r>
       <r>   -17.8957     3.7865    12.6412 </r>
       <r>   -17.8037     1.4549    12.7752 </r>
       <r>   -17.7116     0.0067    12.7758 </r>
       <r>   -17.6196     1.7829    12.9399 </r>
       <r>   -17.5275     8.6772    13.7388 </r>
       <r>   -17.4354     4.9357    14.1931 </r>
       <r>   -17.3434     1.4420    14.3259 </r>
       <r>   -17.2513     4.7993    14.7677 </r>
       <r>   -17.1593     2.3713    14.9860 </r>
       <r>   -17.0672     3.8362    15.3392 </r>
       <r>   -16.9751     3.0803    15.6228 </r>
       <r>   -16.8831     0.9942    15.7143 </r>
       <r>   -16.7910     1.5809    15.8598 </r>
       <r>   -16.6990     8.6407    16.6553 </r>
       <r>   -16.6069     5.5471    17.1660 </r>
       <r>   -16.5148     0.1924    17.1837 </r>
       <r>   -16.4228     0.0000    17.1837 </r>
       <r>   -16.3307     0.0000    17.1837 </r>
       <r>   -16.2387     0.0411    17.1875 </r>
       <r>   -16.1466     1.7231    17.3461 </r>
       <r>   -16.0545     1.1888    17.4555 </r>
       <r>   -15.9625     4.7284    17.8908 </r>
       <r>   -15.8704     2.8783    18.1558 </r>
       <r>   -15.7783     0.5766    18.2089 </r>
       <r>   -15.6863     3.2398    18.5071 </r>
       <r>   -15.5942     5.2900    18.9941 </r>
       <r>   -15.5022     1.6090    19.1423 </r>
       <r>   -15.4101     0.0714    19.1488 </r>
       <r>   -15.3180     1.6455    19.3003 </r>
       <r>   -15.2260     9.8936    20.2111 </r>
       <r>   -15.1339     3.4600    20.5297 </r>
       <r>   -15.0419     1.0170    20.6233 </r>
       <r>   -14.9498     4.8845    21.0730 </r>
       <r>   -14.8577     4.4166    21.4796 </r>
       <r>   -14.7657     1.3309    21.6021 </r>
       <r>   -14.6736     2.8165    21.8614 </r>
       <r>   -14.5816     8.4884    22.6428 </r>
       <r>   -14.4895     0.9973    22.7346 </r>
       <r>   -14.3974     0.0979    22.7436 </r>
       <r>   -14.3054     3.7691    23.0906 </r>
       <r>   -14.2133     4.1599    23.4736 </r>
       <r>   -14.1213     4.4132    23.8799 </r>
       <r>   -14.0292     0.9362    23.9661 </r>
       <r>   -13.9371     3.3753    24.2768 </r>
       <r>   -13.8451     1.8647    24.4485 </r>
       <r>   -13.7530     1.2696    24.5653 </r>
       <r>   -13.6610     3.9871    24.9324 </r>
       <r>   -13.5689     2.3137    25.1454 </r>
       <r>   -13.4768     4.3274    25.5438 </r>
       <r>   -13.3848     1.4215    25.6746 </r>
       <r>   -13.2927     2.4527    25.9004 </r>
       <r>   -13.2007     3.6670    26.2380 </r>
       <r>   -13.1086     0.0753    26.2449 </r>
       <r>   -13.0165     0.8395    26.3222 </r>
       <r>   -12.9245     9.3503    27.1830 </r>
       <r>   -12.8324     5.0946    27.6520 </r>
       <r>   -12.7404     3.2719    27.9532 </r>
       <r>   -12.6483     0.3690    27.9872 </r>
       <r>   -12.5562     2.1248    28.1828 </r>
       <r>   -12.4642     0.2620    28.2069 </r>
       <r>   -12.3721     1.5969    28.3540 </r>
       <r>   -12.2801     7.9081    29.0820 </r>
       <r>   -12.1880     8.7044    29.8833 </r>
       <r>   -12.0959     2.9998    30.1595 </r>
       <r>   -12.0039     0.0508    30.1642 </r>
       <r>   -11.9118     1.9180    30.3407 </r>
       <r>   -11.8198     3.3690    30.6509 </r>
       <r>   -11.7277     3.6929    30.9908 </r>
       <r>   -11.6356     6.4423    31.5839 </r>
       <r>   -11.5436     0.5289    31.6326 </r>
       <r>   -11.4515     0.2373    31.6545 </r>
       <r>   -11.3594     6.4722    32.2503 </r>
       <r>   -11.2674     6.0665    32.8088 </r>
       <r>   -11.1753     3.3551    33.1177 </r>
       <r>   -11.0833     5.5629    33.6298 </r>
       <r>   -10.9912     4.7167    34.0640 </r>
       <r>   -10.8991     2.8120    34.3229 </r>
       <r>   -10.8071     0.0397    34.3265 </r>
       <r>   -10.7150     0.0038    34.3269 </r>
       <r>   -10.6230     1.5416    34.4688 </r>
       <r>   -10.5309    10.9908    35.4806 </r>
       <r>   -10.4388    10.5927    36.4558 </r>
       <r>   -10.3468     2.9090    36.7236 </r>
       <r>   -10.2547     5.8917    37.2660 </r>
       <r>   -10.1627     2.0753    37.4570 </r>
       <r>   -10.0706     4.3166    37.8544 </r>
       <r>    -9.9785     4.9499    38.3101 </r>
       <r>    -9.8865    10.8358    39.3077 </r>
       <r>    -9.7944     9.9626    40.2248 </r>
       <r>    -9.7024     6.2475    40.8000 </r>
       <r>    -9.6103     8.7477    41.6053 </r>
       <r>    -9.5182     8.9074    42.4253 </r>
       <r>    -9.4262     5.4557    42.9275 </r>
       <r>    -9.3341     3.8256    43.2797 </r>
       <r>    -9.2421    10.3319    44.2309 </r>
       <r>    -9.1500    12.0358    45.3389 </r>
       <r>    -9.0579    14.7769    46.6993 </r>
       <r>    -8.9659     6.8809    47.3327 </r>
       <r>    -8.8738     3.1516    47.6229 </r>
       <r>    -8.7818    12.2691    48.7524 </r>
       <r>    -8.6897     6.9193    49.3894 </r>
       <r>    -8.5976     7.4484    50.0751 </r>
       <r>    -8.5056     6.9856    50.7182 </r>
       <r>    -8.4135     8.1368    51.4672 </r>
       <r>    -8.3215     3.3449    51.7752 </r>
       <r>    -8.2294     4.0009    52.1435 </r>
       <r>    -8.1373     5.6126    52.6602 </r>
       <r>    -8.0453    13.6658    53.9183 </r>
       <r>    -7.9532     5.3532    54.4111 </r>
       <r>    -7.8612     4.9406    54.8659 </r>
       <r>    -7.7691     1.2259    54.9788 </r>
       <r>    -7.6770     8.3334    55.7460 </r>
       <r>    -7.5850     7.0652    56.3964 </r>
       <r>    -7.4929     5.1234    56.8680 </r>
       <r>    -7.4009     2.9899    57.1433 </r>
       <r>    -7.3088     7.3003    57.8154 </r>
       <r>    -7.2167     2.3378    58.0306 </r>
       <r>    -7.1247     9.9673    58.9482 </r>
       <r>    -7.0326     7.7205    59.6589 </r>
       <r>    -6.9406     3.5774    59.9883 </r>
       <r>    -6.8485     3.5661    60.3165 </r>
       <r>    -6.7564     0.1587    60.3312 </r>
       <r>    -6.6644     4.3272    60.7295 </r>
       <r>    -6.5723    10.5318    61.6991 </r>
       <r>    -6.4802     8.8247    62.5115 </r>
       <r>    -6.3882     4.1250    62.8912 </r>
       <r>    -6.2961     4.0442    63.2635 </r>
       <r>    -6.2041     1.7497    63.4246 </r>
       <r>    -6.1120     4.9647    63.8817 </r>
       <r>    -6.0199     4.8767    64.3306 </r>
       <r>    -5.9279     2.8230    64.5905 </r>
       <r>    -5.8358     7.9186    65.3195 </r>
       <r>    -5.7438     7.1410    65.9769 </r>
       <r>    -5.6517     3.4632    66.2957 </r>
       <r>    -5.5596     3.7872    66.6444 </r>
       <r>    -5.4676     1.4806    66.7807 </r>
       <r>    -5.3755     3.1927    67.0746 </r>
       <r>    -5.2835     2.0849    67.2665 </r>
       <r>    -5.1914     1.5309    67.4075 </r>
       <r>    -5.0993     3.2648    67.7080 </r>
       <r>    -5.0073    15.5496    69.1395 </r>
       <r>    -4.9152     6.1847    69.7089 </r>
       <r>    -4.8232     0.0585    69.7143 </r>
       <r>    -4.7311     0.1425    69.7274 </r>
       <r>    -4.6390     2.0500    69.9161 </r>
       <r>    -4.5470     0.4711    69.9595 </r>
       <r>    -4.4549     1.4270    70.0909 </r>
       <r>    -4.3629     3.9599    70.4554 </r>
       <r>    -4.2708     5.0397    70.9194 </r>
       <r>    -4.1787     2.8332    71.1802 </r>
       <r>    -4.0867     0.0376    71.1837 </r>
       <r>    -3.9946     0.0113    71.1847 </r>
       <r>    -3.9026     1.2221    71.2972 </r>
       <r>    -3.8105     1.4084    71.4269 </r>
       <r>    -3.7184     0.0185    71.4286 </r>
       <r>    -3.6264     0.0155    71.4300 </r>
       <r>    -3.5343     2.1986    71.6324 </r>
       <r>    -3.4423     3.0541    71.9136 </r>
       <r>    -3.3502     0.0522    71.9184 </r>
       <r>    -3.2581     0.0000    71.9184 </r>
       <r>    -3.1661     0.0000    71.9184 </r>
       <r>    -3.0740     0.0000    71.9184 </r>
       <r>    -2.9820     0.0000    71.9184 </r>
       <r>    -2.8899     0.0003    71.9184 </r>
       <r>    -2.7978     0.2247    71.9391 </r>
       <r>    -2.7058     1.3857    72.0666 </r>
       <r>    -2.6137     0.1628    72.0816 </r>
       <r>    -2.5217     0.0001    72.0816 </r>
       <r>    -2.4296     0.0000    72.0816 </r>
       <r>    -2.3375     0.0000    72.0816 </r>
       <r>    -2.2455     0.0000    72.0816 </r>
       <r>    -2.1534     0.0001    72.0816 </r>
       <r>    -2.0613     0.3129    72.1104 </r>
       <r>    -1.9693     4.1283    72.4905 </r>
       <r>    -1.8772     0.8779    72.5713 </r>
       <r>    -1.7852     0.0568    72.5765 </r>
       <r>    -1.6931     1.7579    72.7384 </r>
       <r>    -1.6010     0.8426    72.8160 </r>
       <r>    -1.5090     0.0040    72.8163 </r>
       <r>    -1.4169     0.0034    72.8166 </r>
       <r>    -1.3249     1.9873    72.9996 </r>
       <r>    -1.2328    11.3423    74.0438 </r>
       <r>    -1.1407     2.8347    74.3047 </r>
       <r>    -1.0487     3.5228    74.6290 </r>
       <r>    -0.9566     5.7702    75.1602 </r>
       <r>    -0.8646     1.8408    75.3297 </r>
       <r>    -0.7725     4.2015    75.7165 </r>
       <r>    -0.6804     3.3985    76.0294 </r>
       <r>    -0.5884     4.7671    76.4682 </r>
       <r>    -0.4963     2.9850    76.7430 </r>
       <r>    -0.4043     3.7556    77.0888 </r>
       <r>    -0.3122     3.3347    77.3958 </r>
       <r>    -0.2201     5.1863    77.8732 </r>
       <r>    -0.1281     0.9299    77.9588 </r>
       <r>    -0.0360     0.0042    77.9592 </r>
       <r>     0.0560     0.5544    78.0103 </r>
       <r>     0.1481     4.2032    78.3972 </r>
       <r>     0.2402     1.5534    78.5402 </r>
       <r>     0.3322     4.1206    78.9196 </r>
       <r>     0.4243     3.6345    79.2542 </r>
       <r>     0.5163     3.1131    79.5407 </r>
       <r>     0.6084     3.6473    79.8765 </r>
       <r>     0.7005     1.3353    79.9994 </r>
       <r>     0.7925     5.8365    80.5368 </r>
       <r>     0.8846     5.9094    81.0808 </r>
       <r>     0.9766     1.4957    81.2185 </r>
       <r>     1.0687     4.2755    81.6121 </r>
       <r>     1.1608     1.8283    81.7804 </r>
       <r>     1.2528     5.6638    82.3018 </r>
       <r>     1.3449     2.1047    82.4956 </r>
       <r>     1.4369     6.9733    83.1375 </r>
       <r>     1.5290    13.9603    84.4227 </r>
       <r>     1.6211     4.5334    84.8401 </r>
       <r>     1.7131     4.6668    85.2697 </r>
       <r>     1.8052     3.3532    85.5784 </r>
       <r>     1.8972     8.8188    86.3902 </r>
       <r>     1.9893     8.8884    87.2085 </r>
       <r>     2.0814     9.2000    88.0555 </r>
       <r>     2.1734     6.8180    88.6831 </r>
       <r>     2.2655     7.0199    89.3294 </r>
       <r>     2.3575     7.3237    90.0036 </r>
       <r>     2.4496     5.1091    90.4740 </r>
       <r>     2.5417     4.2913    90.8690 </r>
       <r>     2.6337     2.9064    91.1366 </r>
       <r>     2.7258     2.2414    91.3429 </r>
       <r>     2.8179     4.5208    91.7591 </r>
       <r>     2.9099     2.4867    91.9880 </r>
       <r>     3.0020     0.1299    92.0000 </r>
       <r>     3.0940     0.0000    92.0000 </r>
       <r>     3.1861     0.0000    92.0000 </r>
       <r>     3.2782     0.0000    92.0000 </r>
       <r>     3.3702     0.0000    92.0000 </r>
       <r>     3.4623     0.0000    92.0000 </r>
       <r>     3.5543     0.0000    92.0000 </r>
       <r>     3.6464     0.0000    92.0000 </r>
       <r>     3.7385     0.0000    92.0000 </r>
       <r>     3.8305     0.0000    92.0000 </r>
       <r>     3.9226     0.0000    92.0000 </r>
       <r>     4.0146     0.0000    92.0000 </r>
       <r>     4.1067     0.0000    92.0000 </r>
      </set>
     </set>
    </array>
   </total>
  </dos>
 </calculation>
 <structure name="finalpos" >
  <crystal>
   <varray name="basis" >
    <v>       7.40170591       0.00000000       0.00000000 </v>
    <v>      -3.70085295       6.41006527       0.00000000 </v>
    <v>       0.00000000       0.00000000      20.00000000 </v>
   </varray>
   <i name="volume">    948.90835877 </i>
   <varray name="rec_basis" >
    <v>       0.13510399       0.07800233       0.00000000 </v>
    <v>       0.00000000       0.15600465       0.00000000 </v>
    <v>       0.00000000       0.00000000       0.05000000 </v>
   </varray>
  </crystal>
  <varray name="positions" >
   <v>       0.99921998       0.99843995       0.50000000 </v>
   <v>       0.33468437       0.00000000       0.50000000 </v>
   <v>       0.66666667       0.00000000       0.50000000 </v>
   <v>       0.00000000       0.33333333       0.50000000 </v>
   <v>       0.33333333       0.33333333       0.50000000 </v>
   <v>       0.66666667       0.33333333       0.50000000 </v>
   <v>       0.00000000       0.66666667       0.50000000 </v>
   <v>       0.33333333       0.66666667       0.50000000 </v>
   <v>       0.66666667       0.66666667       0.50000000 </v>
   <v>       0.22222222       0.11111111       0.50000000 </v>
   <v>       0.55555556       0.11111111       0.50000000 </v>
   <v>       0.88888889       0.11111111       0.50000000 </v>
   <v>       0.22222222       0.44444444       0.50000000 </v>
   <v>       0.55555556       0.44444444       0.50000000 </v>
   <v>       0.88888889       0.44444444       0.50000000 </v>
   <v>       0.22222222       0.77777778       0.50000000 </v>
   <v>       0.55555556       0.77777778       0.50000000 </v>
   <v>       0.88888889       0.77777778       0.50000000 </v>
  </varray>
 </structure>
</modeling>
