<?xml version="1.0" encoding="ISO-8859-1"?>
<modeling>
 <generator>
  <i name="program" type="string">vasp </i>
  <i name="version" type="string">6.4.1  </i>
  <i name="subversion" type="string">05Apr23 (build Feb 12 2025 00:37:39) complex                          parallel </i>
  <i name="platform" type="string">LinuxIFC </i>
  <i name="date" type="string">2025 02 14 </i>
  <i name="time" type="string">06:01:02 </i>
 </generator>
 <incar>
  <i type="string" name="SYSTEM">SCF</i>
  <i type="int" name="ISTART">     0</i>
  <i type="int" name="ICHARG">     2</i>
  <i type="int" name="NELM">    60</i>
  <i type="int" name="NELMIN">     6</i>
  <i name="EDIFF">      0.00000100</i>
  <i name="EDIFFG">     -0.00000100</i>
  <i name="ENCUT">    600.00000000</i>
  <i type="string" name="LREAL">Auto</i>
  <i type="int" name="ISMEAR">     0</i>
  <i name="SIGMA">      0.05000000</i>
  <i type="logical" name="LWAVE"> F  </i>
  <i type="logical" name="LCHARG"> F  </i>
 </incar>
 <primitive_cell>
  <structure name="primitive_cell" >
   <crystal>
    <varray name="basis" >
     <v>       7.40170591       0.00000000       0.00000000 </v>
     <v>      -3.70085295       6.41006527       0.00000000 </v>
     <v>       0.00000000       0.00000000      20.00000000 </v>
    </varray>
    <i name="volume">    948.90835877 </i>
    <varray name="rec_basis" >
     <v>       0.13510399       0.07800233       0.00000000 </v>
     <v>       0.00000000       0.15600465       0.00000000 </v>
     <v>       0.00000000       0.00000000       0.05000000 </v>
    </varray>
   </crystal>
   <varray name="positions" >
    <v>       0.99864896       0.00000000       0.50000000 </v>
    <v>       0.33333333       0.00000000       0.50000000 </v>
    <v>       0.66666667       0.00000000       0.50000000 </v>
    <v>       1.00000000       0.33333333       0.50000000 </v>
    <v>       0.33333333       0.33333333       0.50000000 </v>
    <v>       0.66666667       0.33333333       0.50000000 </v>
    <v>       1.00000000       0.66666667       0.50000000 </v>
    <v>       0.33333333       0.66666667       0.50000000 </v>
    <v>       0.66666667       0.66666667       0.50000000 </v>
    <v>       0.22222222       0.11111111       0.49950000 </v>
    <v>       0.55555556       0.11111111       0.50000000 </v>
    <v>       0.88888889       0.11111111       0.50000000 </v>
    <v>       0.22222222       0.44444444       0.50000000 </v>
    <v>       0.55555556       0.44444444       0.50000000 </v>
    <v>       0.88888889       0.44444444       0.50000000 </v>
    <v>       0.22222222       0.77777778       0.50000000 </v>
    <v>       0.55555556       0.77777778       0.50000000 </v>
    <v>       0.88888889       0.77777778       0.50000000 </v>
   </varray>
  </structure>
  <varray name="primitive_index" >
   <v type="int" >        1 </v>
   <v type="int" >        2 </v>
   <v type="int" >        3 </v>
   <v type="int" >        4 </v>
   <v type="int" >        5 </v>
   <v type="int" >        6 </v>
   <v type="int" >        7 </v>
   <v type="int" >        8 </v>
   <v type="int" >        9 </v>
   <v type="int" >       10 </v>
   <v type="int" >       11 </v>
   <v type="int" >       12 </v>
   <v type="int" >       13 </v>
   <v type="int" >       14 </v>
   <v type="int" >       15 </v>
   <v type="int" >       16 </v>
   <v type="int" >       17 </v>
   <v type="int" >       18 </v>
  </varray>
 </primitive_cell>
 <kpoints>
  <generation param="Gamma">
   <v type="int" name="divisions">       7        7        1 </v>
   <v name="usershift">      0.00000000       0.00000000       0.00000000 </v>
   <v name="genvec1">      0.14285714       0.00000000       0.00000000 </v>
   <v name="genvec2">      0.00000000       0.14285714       0.00000000 </v>
   <v name="genvec3">      0.00000000       0.00000000       1.00000000 </v>
   <v name="shift">      0.00000000       0.00000000       0.00000000 </v>
  </generation>
  <varray name="kpointlist" >
   <v>       0.00000000       0.00000000       0.00000000 </v>
   <v>       0.14285714       0.00000000       0.00000000 </v>
   <v>       0.00000000       0.14285714       0.00000000 </v>
   <v>      -0.14285714       0.14285714       0.00000000 </v>
   <v>       0.28571429       0.00000000       0.00000000 </v>
   <v>       0.00000000       0.28571429       0.00000000 </v>
   <v>      -0.28571429       0.28571429       0.00000000 </v>
   <v>       0.42857143       0.00000000       0.00000000 </v>
   <v>       0.00000000       0.42857143       0.00000000 </v>
   <v>      -0.42857143       0.42857143       0.00000000 </v>
   <v>       0.14285714       0.14285714       0.00000000 </v>
   <v>      -0.14285714       0.28571429       0.00000000 </v>
   <v>      -0.28571429       0.14285714       0.00000000 </v>
   <v>       0.28571429       0.14285714       0.00000000 </v>
   <v>      -0.14285714       0.42857143       0.00000000 </v>
   <v>      -0.42857143       0.28571429       0.00000000 </v>
   <v>      -0.28571429       0.42857143       0.00000000 </v>
   <v>       0.14285714       0.28571429       0.00000000 </v>
   <v>       0.42857143      -0.14285714       0.00000000 </v>
   <v>       0.42857143       0.14285714       0.00000000 </v>
   <v>      -0.14285714      -0.42857143       0.00000000 </v>
   <v>       0.42857143       0.42857143       0.00000000 </v>
   <v>       0.28571429       0.28571429       0.00000000 </v>
   <v>      -0.28571429      -0.42857143       0.00000000 </v>
   <v>       0.42857143       0.28571429       0.00000000 </v>
  </varray>
  <varray name="weights" >
   <v>       0.02040816 </v>
   <v>       0.04081633 </v>
   <v>       0.04081633 </v>
   <v>       0.04081633 </v>
   <v>       0.04081633 </v>
   <v>       0.04081633 </v>
   <v>       0.04081633 </v>
   <v>       0.04081633 </v>
   <v>       0.04081633 </v>
   <v>       0.04081633 </v>
   <v>       0.04081633 </v>
   <v>       0.04081633 </v>
   <v>       0.04081633 </v>
   <v>       0.04081633 </v>
   <v>       0.04081633 </v>
   <v>       0.04081633 </v>
   <v>       0.04081633 </v>
   <v>       0.04081633 </v>
   <v>       0.04081633 </v>
   <v>       0.04081633 </v>
   <v>       0.04081633 </v>
   <v>       0.04081633 </v>
   <v>       0.04081633 </v>
   <v>       0.04081633 </v>
   <v>       0.04081633 </v>
  </varray>
 </kpoints>
 <parameters>
  <separator name="general" >
   <i type="string" name="SYSTEM">SCF</i>
   <i type="logical" name="LCOMPAT"> F  </i>
  </separator>
  <separator name="electronic" >
   <i type="string" name="PREC">normal</i>
   <i name="ENMAX">    600.00000000</i>
   <i name="ENAUG">    644.87300000</i>
   <i name="EDIFF">      0.00000100</i>
   <i type="int" name="IALGO">    38</i>
   <i type="int" name="IWAVPR">    10</i>
   <i type="int" name="NBANDS">    46</i>
   <i type="int" name="NBANDSLOW">    -1</i>
   <i type="int" name="NBANDSHIGH">    -1</i>
   <i name="NELECT">     72.00000000</i>
   <i type="int" name="TURBO">     0</i>
   <i type="int" name="IRESTART">     0</i>
   <i type="int" name="NREBOOT">     0</i>
   <i type="int" name="NMIN">     0</i>
   <i name="EREF">      0.00000000</i>
   <separator name="electronic smearing" >
    <i type="int" name="ISMEAR">     0</i>
    <i name="SIGMA">      0.05000000</i>
    <i name="KSPACING">      0.50000000</i>
    <i type="logical" name="KGAMMA"> T  </i>
    <i type="logical" name="KBLOWUP"> T  </i>
   </separator>
   <separator name="electronic projectors" >
    <i type="logical" name="LREAL"> T  </i>
    <v name="ROPT">     -0.00050000</v>
    <i type="int" name="LMAXPAW">  -100</i>
    <i type="int" name="LMAXMIX">     2</i>
    <i type="logical" name="NLSPLINE"> F  </i>
   </separator>
   <separator name="electronic startup" >
    <i type="int" name="ISTART">     0</i>
    <i type="int" name="ICHARG">     2</i>
    <i type="int" name="INIWAV">     1</i>
   </separator>
   <separator name="electronic spin" >
    <i type="int" name="ISPIN">     1</i>
    <i type="logical" name="LNONCOLLINEAR"> F  </i>
    <v name="MAGMOM">      1.00000000      1.00000000      1.00000000      1.00000000      1.00000000      1.00000000      1.00000000      1.00000000      1.00000000      1.00000000      1.00000000      1.00000000      1.00000000      1.00000000      1.00000000      1.00000000      1.00000000      1.00000000</v>
    <i name="NUPDOWN">     -1.00000000</i>
    <i type="logical" name="LSORBIT"> F  </i>
    <v name="SAXIS">      0.00000000      0.00000000      1.00000000</v>
    <i type="logical" name="LSPIRAL"> F  </i>
    <v name="QSPIRAL">      0.00000000      0.00000000      0.00000000</v>
    <i type="logical" name="LZEROZ"> F  </i>
   </separator>
   <separator name="electronic exchange-correlation" >
    <i type="logical" name="LASPH"> F  </i>
    <i type="logical" name="LMETAGGA"> F  </i>
   </separator>
   <separator name="electronic convergence" >
    <i type="int" name="NELM">    60</i>
    <i type="int" name="NELMDL">    -5</i>
    <i type="int" name="NELMIN">     6</i>
    <i name="ENINI">    600.00000000</i>
    <separator name="electronic convergence detail" >
     <i type="logical" name="LDIAG"> T  </i>
     <i type="logical" name="LSUBROT"> F  </i>
     <i name="WEIMIN">      0.00000000</i>
     <i name="EBREAK">      0.00000000</i>
     <i name="DEPER">      0.30000000</i>
     <i type="int" name="NRMM">     4</i>
     <i name="TIME">      0.40000000</i>
    </separator>
   </separator>
   <separator name="electronic mixer" >
    <i name="AMIX">      0.40000000</i>
    <i name="BMIX">      1.00000000</i>
    <i name="AMIN">      0.10000000</i>
    <i name="AMIX_MAG">      1.60000000</i>
    <i name="BMIX_MAG">      1.00000000</i>
    <separator name="electronic mixer details" >
     <i type="int" name="IMIX">     4</i>
     <i type="logical" name="MIXFIRST"> F  </i>
     <i type="int" name="MAXMIX">   -45</i>
     <i name="WC">    100.00000000</i>
     <i type="int" name="INIMIX">     1</i>
     <i type="int" name="MIXPRE">     1</i>
     <i type="int" name="MREMOVE">     5</i>
    </separator>
   </separator>
   <separator name="electronic dipolcorrection" >
    <i type="logical" name="LDIPOL"> F  </i>
    <i type="logical" name="LMONO"> F  </i>
    <i type="int" name="IDIPOL">     0</i>
    <i name="EPSILON">      1.00000000</i>
    <v name="DIPOL">   -100.00000000   -100.00000000   -100.00000000</v>
    <i name="EFIELD">      0.00000000</i>
   </separator>
  </separator>
  <separator name="grids" >
   <i type="int" name="NGX">    48</i>
   <i type="int" name="NGY">    48</i>
   <i type="int" name="NGZ">   120</i>
   <i type="int" name="NGXF">    96</i>
   <i type="int" name="NGYF">    96</i>
   <i type="int" name="NGZF">   240</i>
   <i type="logical" name="ADDGRID"> F  </i>
  </separator>
  <separator name="ionic" >
   <i type="int" name="NSW">     0</i>
   <i type="int" name="IBRION">    -1</i>
   <i type="int" name="MDALGO">     0</i>
   <i type="int" name="ISIF">     2</i>
   <i name="PSTRESS">      0.00000000</i>
   <i name="EDIFFG">     -0.00000100</i>
   <i type="int" name="NFREE">     0</i>
   <i name="POTIM">      0.50000000</i>
   <i name="SMASS">     -3.00000000</i>
   <i name="SCALEE">      1.00000000</i>
  </separator>
  <separator name="ionic md" >
   <i name="TEBEG">      0.00010000</i>
   <i name="TEEND">      0.00010000</i>
   <i type="int" name="NBLOCK">     1</i>
   <i type="int" name="KBLOCK">     1</i>
   <i type="int" name="NPACO">   256</i>
   <i name="APACO">     10.00000000</i>
  </separator>
  <separator name="symmetry" >
   <i type="int" name="ISYM">     2</i>
   <i name="SYMPREC">      0.00001000</i>
  </separator>
  <separator name="dos" >
   <i type="int" name="LORBIT">     0</i>
   <v name="RWIGS">     -1.00000000</v>
   <i type="int" name="NEDOS">   301</i>
   <i name="EMIN">     10.00000000</i>
   <i name="EMAX">    -10.00000000</i>
   <i name="EFERMI">      0.00000000</i>
  </separator>
  <separator name="writing" >
   <i type="int" name="NWRITE">     2</i>
   <i type="logical" name="LWAVE"> F  </i>
   <i type="logical" name="LDOWNSAMPLE"> F  </i>
   <i type="logical" name="LCHARG"> F  </i>
   <i type="logical" name="LPARD"> F  </i>
   <i type="logical" name="LVTOT"> F  </i>
   <i type="logical" name="LVHAR"> F  </i>
   <i type="logical" name="LELF"> F  </i>
   <i type="logical" name="LOPTICS"> F  </i>
   <v name="STM">      0.00000000      0.00000000      0.00000000      0.00000000      0.00000000      0.00000000      0.00000000</v>
  </separator>
  <separator name="performance" >
   <i type="int" name="NPAR">     2</i>
   <i type="int" name="NSIM">     4</i>
   <i type="int" name="NBLK">    -1</i>
   <i type="logical" name="LPLANE"> T  </i>
   <i type="logical" name="LSCALAPACK"> T  </i>
   <i type="logical" name="LSCAAWARE"> F  </i>
   <i type="logical" name="LSCALU"> F  </i>
   <i type="logical" name="LASYNC"> F  </i>
   <i type="logical" name="LORBITALREAL"> F  </i>
  </separator>
  <separator name="miscellaneous" >
   <i type="int" name="IDIOT">     3</i>
   <i type="int" name="PHON_NSTRUCT">    -1</i>
   <i type="logical" name="LMUSIC"> F  </i>
   <v name="POMASS">     12.01100000</v>
   <v name="DARWINR">      0.00000000</v>
   <v name="DARWINV">      1.00000000</v>
   <i type="logical" name="LCORR"> T  </i>
  </separator>
  <i type="logical" name="GGA_COMPAT"> T  </i>
  <i type="logical" name="LBERRY"> F  </i>
  <i type="int" name="ICORELEVEL">     0</i>
  <i type="logical" name="LDAU"> F  </i>
  <i type="int" name="I_CONSTRAINED_M">     0</i>
  <separator name="electronic exchange-correlation" >
   <i type="string" name="GGA">--</i>
   <i type="int" name="VOSKOWN">     0</i>
   <i type="logical" name="LHFCALC"> F  </i>
   <i type="string" name="PRECFOCK"></i>
   <i type="logical" name="LSYMGRAD"> F  </i>
   <i type="logical" name="LHFONE"> F  </i>
   <i type="logical" name="LRHFCALC"> F  </i>
   <i type="logical" name="LTHOMAS"> F  </i>
   <i type="logical" name="LMODELHF"> F  </i>
   <i type="logical" name="LFOCKACE"> F  </i>
   <i name="ENCUT4O">     -1.00000000</i>
   <i type="int" name="EXXOEP">     0</i>
   <i type="int" name="FOURORBIT">     0</i>
   <i name="AEXX">      0.00000000</i>
   <i name="HFALPHA">      0.00000000</i>
   <i name="MCALPHA">      0.00000000</i>
   <i name="ALDAX">      1.00000000</i>
   <i name="AGGAX">      1.00000000</i>
   <i name="ALDAC">      1.00000000</i>
   <i name="AGGAC">      1.00000000</i>
   <i type="int" name="NKREDX">     1</i>
   <i type="int" name="NKREDY">     1</i>
   <i type="int" name="NKREDZ">     1</i>
   <i type="logical" name="SHIFTRED"> F  </i>
   <i type="logical" name="ODDONLY"> F  </i>
   <i type="logical" name="EVENONLY"> F  </i>
   <i type="int" name="LMAXFOCK">     0</i>
   <i type="int" name="NMAXFOCKAE">     0</i>
   <i type="logical" name="LFOCKAEDFT"> F  </i>
   <i name="HFSCREEN">      0.00000000</i>
   <i name="HFSCREENC">      0.00000000</i>
   <i type="int" name="NBANDSGWLOW">     0</i>
  </separator>
  <separator name="vdW DFT" >
   <i type="logical" name="LUSE_VDW"> F  </i>
   <i type="int" name="IVDW_NL">     1</i>
   <i type="logical" name="LSPIN_VDW"> F  </i>
   <i name="Zab_VDW">     -0.84910000</i>
   <i name="PARAM1">      0.12340000</i>
   <i name="PARAM2">      1.00000000</i>
   <i name="PARAM3">      0.00000000</i>
  </separator>
  <separator name="model GW" >
   <i type="int" name="MODEL_GW">     0</i>
   <i name="MODEL_EPS0">     31.63027863</i>
   <i name="MODEL_ALPHA">      1.00000000</i>
  </separator>
  <separator name="linear response parameters" >
   <i type="logical" name="LEPSILON"> F  </i>
   <i type="logical" name="LRPA"> F  </i>
   <i type="logical" name="LNABLA"> F  </i>
   <i type="logical" name="LVEL"> F  </i>
   <i name="CSHIFT">      0.10000000</i>
   <i name="OMEGAMAX">     -1.00000000</i>
   <i name="DEG_THRESHOLD">      0.00200000</i>
   <i name="RTIME">     -0.10000000</i>
   <i name="WPLASMAI">      0.00000000</i>
   <v name="DFIELD">      0.00000000      0.00000000      0.00000000</v>
   <v name="WPLASMA">      0.00000000      0.00000000      0.00000000      0.00000000      0.00000000      0.00000000      0.00000000      0.00000000      0.00000000</v>
  </separator>
  <separator name="orbital magnetization" >
   <i type="logical" name="NUCIND"> F  </i>
   <v name="MAGPOS">      0.00000000      0.00000000      0.00000000</v>
   <i type="logical" name="LNICSALL"> T  </i>
   <i type="logical" name="ORBITALMAG"> F  </i>
   <i type="logical" name="LMAGBLOCH"> F  </i>
   <i type="logical" name="LCHIMAG"> F  </i>
   <i type="logical" name="LGAUGE"> T  </i>
   <i type="int" name="MAGATOM">     0</i>
   <v name="MAGDIPOL">      0.00000000      0.00000000      0.00000000</v>
   <v name="AVECCONST">      0.00000000      0.00000000      0.00000000</v>
  </separator>
  <separator name="response functions" >
   <i type="logical" name="LALL_IN_ONE"> F  </i>
   <i type="int" name="IALL_IN_ONE">    -1</i>
   <i type="int" name="NBANDS_WAVE">    -1</i>
   <i type="logical" name="LFINITE_TEMPERATURE"> F  </i>
   <i type="logical" name="LADDER"> F  </i>
   <i type="logical" name="LRPAFORCE"> F  </i>
   <i type="logical" name="LFXC"> F  </i>
   <i type="logical" name="LHARTREE"> T  </i>
   <i type="int" name="IBSE">     0</i>
   <v type="int" name="KPOINT">    -1     0     0     0</v>
   <i type="logical" name="LTCTC"> F  </i>
   <i type="logical" name="LTCTE"> F  </i>
   <i type="logical" name="LTETE"> F  </i>
   <i type="logical" name="LTRIPLET"> F  </i>
   <i type="logical" name="LFXCEPS"> F  </i>
   <i type="logical" name="LFXHEG"> F  </i>
   <i type="int" name="NATURALO">     2</i>
   <i type="logical" name="LHOLEGF"> F  </i>
   <i type="logical" name="L2ORDER"> F  </i>
   <i type="logical" name="LDMP1"> F  </i>
   <i type="logical" name="LMP2LT"> F  </i>
   <i type="logical" name="LSMP2LT"> F  </i>
   <i type="logical" name="LGWLF"> F  </i>
   <i name="ENCUTGW">     -1.60000002</i>
   <i name="ENCUTGWSOFT">     -1.60000002</i>
   <i name="ENCUTLF">     -1.00000000</i>
   <i type="logical" name="LESF_SPLINES"> F  </i>
   <i type="int" name="LMAXMP2">    -1</i>
   <i name="SCISSOR">      0.00000000</i>
   <i type="int" name="NOMEGA">     0</i>
   <i type="int" name="NOMEGAR">     0</i>
   <i type="int" name="NBANDSGW">    -1</i>
   <i type="int" name="NBANDSO">    -1</i>
   <i type="int" name="NBANDSV">    -1</i>
   <i type="int" name="NELMGW">     1</i>
   <i type="int" name="NELMHF">     1</i>
   <i type="int" name="DIM">     3</i>
   <i type="int" name="IESPILON">     4</i>
   <i type="int" name="ANTIRES">     0</i>
   <i name="OMEGAMAX">    -30.00000000</i>
   <i name="OMEGAMIN">    -30.00000000</i>
   <i name="OMEGATL">   -200.00000000</i>
   <i type="int" name="OMEGAGRID">     0</i>
   <i name="CSHIFT">     -0.10000000</i>
   <i type="logical" name="LSELFENERGY"> F  </i>
   <i type="logical" name="LSPECTRAL"> F  </i>
   <i type="logical" name="LSPECTRALGW"> F  </i>
   <i type="logical" name="LSINGLES"> F  </i>
   <i type="logical" name="LFERMIGW"> F  </i>
   <i type="logical" name="ODDONLYGW"> F  </i>
   <i type="logical" name="EVENONLYGW"> F  </i>
   <i type="int" name="NKREDLFX">     1</i>
   <i type="int" name="NKREDLFY">     1</i>
   <i type="int" name="NKREDLFZ">     1</i>
   <i type="int" name="MAXMEM">  2800</i>
   <i type="int" name="TELESCOPE">     0</i>
   <i type="int" name="NTAUPAR">    -1</i>
   <i type="int" name="NOMEGAPAR">    -1</i>
   <i name="DAMP_NEWTON">      0.80000001</i>
   <i name="LAMBDA">      1.00000000</i>
  </separator>
  <separator name="External order field" >
   <i name="OFIELD_KAPPA">      0.00000000</i>
   <v name="OFIELD_K">      0.00000000      0.00000000      0.00000000</v>
   <i name="OFIELD_Q6_NEAR">      0.00000000</i>
   <i name="OFIELD_Q6_FAR">      0.00000000</i>
   <i name="OFIELD_A">      0.00000000</i>
  </separator>
  <separator name="optional k-points parameters" >
   <i type="int" name="KPOINTS_OPT_MODE">     1</i>
   <i type="logical" name="LKPOINTS_OPT"> F  </i>
  </separator>
 </parameters>
 <atominfo>
  <atoms>      18 </atoms>
  <types>       1 </types>
  <array name="atoms" >
   <dimension dim="1">ion</dimension>
   <field type="string">element</field>
   <field type="int">atomtype</field>
   <set>
    <rc><c>C </c><c>   1</c></rc>
    <rc><c>C </c><c>   1</c></rc>
    <rc><c>C </c><c>   1</c></rc>
    <rc><c>C </c><c>   1</c></rc>
    <rc><c>C </c><c>   1</c></rc>
    <rc><c>C </c><c>   1</c></rc>
    <rc><c>C </c><c>   1</c></rc>
    <rc><c>C </c><c>   1</c></rc>
    <rc><c>C </c><c>   1</c></rc>
    <rc><c>C </c><c>   1</c></rc>
    <rc><c>C </c><c>   1</c></rc>
    <rc><c>C </c><c>   1</c></rc>
    <rc><c>C </c><c>   1</c></rc>
    <rc><c>C </c><c>   1</c></rc>
    <rc><c>C </c><c>   1</c></rc>
    <rc><c>C </c><c>   1</c></rc>
    <rc><c>C </c><c>   1</c></rc>
    <rc><c>C </c><c>   1</c></rc>
   </set>
  </array>
  <array name="atomtypes" >
   <dimension dim="1">type</dimension>
   <field type="int">atomspertype</field>
   <field type="string">element</field>
   <field>mass</field>
   <field>valence</field>
   <field type="string">pseudopotential</field>
   <set>
    <rc><c>  18</c><c>C </c><c>     12.01100000</c><c>      4.00000000</c><c>  PAW_PBE C 08Apr2002                   </c></rc>
   </set>
  </array>
 </atominfo>
 <structure name="initialpos" >
  <crystal>
   <varray name="basis" >
    <v>       7.40170591       0.00000000       0.00000000 </v>
    <v>      -3.70085295       6.41006527       0.00000000 </v>
    <v>       0.00000000       0.00000000      20.00000000 </v>
   </varray>
   <i name="volume">    948.90835877 </i>
   <varray name="rec_basis" >
    <v>       0.13510399       0.07800233       0.00000000 </v>
    <v>       0.00000000       0.15600465       0.00000000 </v>
    <v>       0.00000000       0.00000000       0.05000000 </v>
   </varray>
  </crystal>
  <varray name="positions" >
   <v>       0.99864896       0.00000000       0.50000000 </v>
   <v>       0.33333333       0.00000000       0.50000000 </v>
   <v>       0.66666667       0.00000000       0.50000000 </v>
   <v>       0.00000000       0.33333333       0.50000000 </v>
   <v>       0.33333333       0.33333333       0.50000000 </v>
   <v>       0.66666667       0.33333333       0.50000000 </v>
   <v>       0.00000000       0.66666667       0.50000000 </v>
   <v>       0.33333333       0.66666667       0.50000000 </v>
   <v>       0.66666667       0.66666667       0.50000000 </v>
   <v>       0.22222222       0.11111111       0.49950000 </v>
   <v>       0.55555556       0.11111111       0.50000000 </v>
   <v>       0.88888889       0.11111111       0.50000000 </v>
   <v>       0.22222222       0.44444444       0.50000000 </v>
   <v>       0.55555556       0.44444444       0.50000000 </v>
   <v>       0.88888889       0.44444444       0.50000000 </v>
   <v>       0.22222222       0.77777778       0.50000000 </v>
   <v>       0.55555556       0.77777778       0.50000000 </v>
   <v>       0.88888889       0.77777778       0.50000000 </v>
  </varray>
 </structure>
 <calculation>
  <scstep>
   <time name="dav">    5.90    6.15</time>
   <time name="total">    5.99    6.24</time>
   <energy>
    <i name="alphaZ">     28.04858418 </i>
    <i name="ewald">  11638.84066823 </i>
    <i name="hartreedc"> -13553.15833602 </i>
    <i name="XCdc">    237.17731982 </i>
    <i name="pawpsdc">   1953.39683484 </i>
    <i name="pawaedc">  -1963.64613940 </i>
    <i name="eentropy">     -0.00833177 </i>
    <i name="bandstr">   -257.78299427 </i>
    <i name="atom">   2648.70517965 </i>
    <i name="e_fr_energy">    731.57278527 </i>
    <i name="e_wo_entrp">    731.58111704 </i>
    <i name="e_0_energy">    731.57695115 </i>
   </energy>
  </scstep>
  <scstep>
   <time name="dav">    7.92    8.23</time>
   <time name="total">    7.92    8.22</time>
   <energy>
    <i name="e_fr_energy">    -23.95168478 </i>
    <i name="e_wo_entrp">    -23.95135372 </i>
    <i name="e_0_energy">    -23.95151925 </i>
   </energy>
  </scstep>
  <scstep>
   <time name="dav">    6.31    5.33</time>
   <time name="total">    6.31    5.33</time>
   <energy>
    <i name="e_fr_energy">   -172.28463968 </i>
    <i name="e_wo_entrp">   -172.28344649 </i>
    <i name="e_0_energy">   -172.28404309 </i>
   </energy>
  </scstep>
  <scstep>
   <time name="dav">    6.26    6.50</time>
   <time name="total">    6.26    6.50</time>
   <energy>
    <i name="e_fr_energy">   -177.34846705 </i>
    <i name="e_wo_entrp">   -177.34633322 </i>
    <i name="e_0_energy">   -177.34740013 </i>
   </energy>
  </scstep>
  <scstep>
   <time name="dav">    7.10    7.37</time>
   <time name="total">    7.35    7.63</time>
   <energy>
    <i name="e_fr_energy">   -177.48539310 </i>
    <i name="e_wo_entrp">   -177.48323748 </i>
    <i name="e_0_energy">   -177.48431529 </i>
   </energy>
  </scstep>
  <scstep>
   <time name="dav">    5.87    6.10</time>
   <time name="total">    6.21    6.45</time>
   <energy>
    <i name="e_fr_energy">   -169.31848052 </i>
    <i name="e_wo_entrp">   -169.31628837 </i>
    <i name="e_0_energy">   -169.31738444 </i>
   </energy>
  </scstep>
  <scstep>
   <time name="dav">    5.90    4.92</time>
   <time name="total">    6.23    5.27</time>
   <energy>
    <i name="e_fr_energy">   -166.15066983 </i>
    <i name="e_wo_entrp">   -166.14846169 </i>
    <i name="e_0_energy">   -166.14956576 </i>
   </energy>
  </scstep>
  <scstep>
   <time name="dav">    6.22    6.46</time>
   <time name="total">    6.57    6.81</time>
   <energy>
    <i name="e_fr_energy">   -166.08767370 </i>
    <i name="e_wo_entrp">   -166.08547241 </i>
    <i name="e_0_energy">   -166.08657305 </i>
   </energy>
  </scstep>
  <scstep>
   <time name="dav">    6.61    6.86</time>
   <time name="total">    6.96    7.22</time>
   <energy>
    <i name="e_fr_energy">   -166.07486788 </i>
    <i name="e_wo_entrp">   -166.07266446 </i>
    <i name="e_0_energy">   -166.07376617 </i>
   </energy>
  </scstep>
  <scstep>
   <time name="dav">    5.76    5.98</time>
   <time name="total">    6.10    6.33</time>
   <energy>
    <i name="e_fr_energy">   -166.05621348 </i>
    <i name="e_wo_entrp">   -166.05400845 </i>
    <i name="e_0_energy">   -166.05511097 </i>
   </energy>
  </scstep>
  <scstep>
   <time name="dav">    5.83    6.05</time>
   <time name="total">    6.17    6.41</time>
   <energy>
    <i name="e_fr_energy">   -166.05999947 </i>
    <i name="e_wo_entrp">   -166.05779577 </i>
    <i name="e_0_energy">   -166.05889762 </i>
   </energy>
  </scstep>
  <scstep>
   <time name="dav">    5.65    4.69</time>
   <time name="total">    5.99    5.04</time>
   <energy>
    <i name="e_fr_energy">   -166.06465358 </i>
    <i name="e_wo_entrp">   -166.06245000 </i>
    <i name="e_0_energy">   -166.06355179 </i>
   </energy>
  </scstep>
  <scstep>
   <time name="dav">    5.93    6.15</time>
   <time name="total">    6.28    6.51</time>
   <energy>
    <i name="e_fr_energy">   -166.06885000 </i>
    <i name="e_wo_entrp">   -166.06664588 </i>
    <i name="e_0_energy">   -166.06774794 </i>
   </energy>
  </scstep>
  <scstep>
   <time name="dav">    5.66    5.87</time>
   <time name="total">    6.00    6.23</time>
   <energy>
    <i name="e_fr_energy">   -166.07259258 </i>
    <i name="e_wo_entrp">   -166.07038844 </i>
    <i name="e_0_energy">   -166.07149051 </i>
   </energy>
  </scstep>
  <scstep>
   <time name="dav">    5.90    6.12</time>
   <time name="total">    6.24    6.48</time>
   <energy>
    <i name="e_fr_energy">   -166.07372896 </i>
    <i name="e_wo_entrp">   -166.07152484 </i>
    <i name="e_0_energy">   -166.07262690 </i>
   </energy>
  </scstep>
  <scstep>
   <time name="dav">    6.04    6.27</time>
   <time name="total">    6.38    6.62</time>
   <energy>
    <i name="e_fr_energy">   -166.07390857 </i>
    <i name="e_wo_entrp">   -166.07170449 </i>
    <i name="e_0_energy">   -166.07280653 </i>
   </energy>
  </scstep>
  <scstep>
   <time name="dav">    5.34    5.54</time>
   <time name="total">    5.69    4.71</time>
   <energy>
    <i name="e_fr_energy">   -166.07410876 </i>
    <i name="e_wo_entrp">   -166.07190476 </i>
    <i name="e_0_energy">   -166.07300676 </i>
   </energy>
  </scstep>
  <scstep>
   <time name="dav">    5.14    5.32</time>
   <time name="total">    5.48    5.68</time>
   <energy>
    <i name="e_fr_energy">   -166.07415035 </i>
    <i name="e_wo_entrp">   -166.07194629 </i>
    <i name="e_0_energy">   -166.07304832 </i>
   </energy>
  </scstep>
  <scstep>
   <time name="dav">    5.11    5.30</time>
   <time name="total">    5.45    5.66</time>
   <energy>
    <i name="e_fr_energy">   -166.07418753 </i>
    <i name="e_wo_entrp">   -166.07198344 </i>
    <i name="e_0_energy">   -166.07308548 </i>
   </energy>
  </scstep>
  <scstep>
   <time name="dav">    4.29    4.46</time>
   <time name="total">    4.64    4.82</time>
   <energy>
    <i name="e_fr_energy">   -166.07420861 </i>
    <i name="e_wo_entrp">   -166.07200455 </i>
    <i name="e_0_energy">   -166.07310658 </i>
   </energy>
  </scstep>
  <scstep>
   <time name="dav">    3.95    4.12</time>
   <time name="total">    4.29    4.47</time>
   <energy>
    <i name="e_fr_energy">   -166.07421723 </i>
    <i name="e_wo_entrp">   -166.07201317 </i>
    <i name="e_0_energy">   -166.07311520 </i>
   </energy>
  </scstep>
  <scstep>
   <time name="dav">    3.93    4.10</time>
   <time name="total">    4.29    4.48</time>
   <energy>
    <i name="e_fr_energy">   -166.07421978 </i>
    <i name="e_wo_entrp">   -166.07201572 </i>
    <i name="e_0_energy">   -166.07311775 </i>
   </energy>
  </scstep>
  <scstep>
   <time name="dav">    4.12    4.27</time>
   <time name="total">    4.20    4.36</time>
   <energy>
    <i name="alphaZ">     28.04858418 </i>
    <i name="ewald">  11638.84066823 </i>
    <i name="hartreedc"> -13861.49370320 </i>
    <i name="XCdc">    247.81378660 </i>
    <i name="pawpsdc">   7452.78158881 </i>
    <i name="pawaedc">  -7465.04492498 </i>
    <i name="eentropy">     -0.00220406 </i>
    <i name="bandstr">   -855.72319525 </i>
    <i name="atom">   2648.70517965 </i>
    <i name="e_fr_energy">   -166.07422002 </i>
    <i name="e_wo_entrp">   -166.07201597 </i>
    <i name="e_0_energy">   -166.07311800 </i>
   </energy>
  </scstep>
  <structure>
   <crystal>
    <varray name="basis" >
     <v>       7.40170591       0.00000000       0.00000000 </v>
     <v>      -3.70085295       6.41006527       0.00000000 </v>
     <v>       0.00000000       0.00000000      20.00000000 </v>
    </varray>
    <i name="volume">    948.90835877 </i>
    <varray name="rec_basis" >
     <v>       0.13510399       0.07800233       0.00000000 </v>
     <v>       0.00000000       0.15600465       0.00000000 </v>
     <v>       0.00000000       0.00000000       0.05000000 </v>
    </varray>
   </crystal>
   <varray name="positions" >
    <v>       0.99864896       0.00000000       0.50000000 </v>
    <v>       0.33333333       0.00000000       0.50000000 </v>
    <v>       0.66666667       0.00000000       0.50000000 </v>
    <v>       0.00000000       0.33333333       0.50000000 </v>
    <v>       0.33333333       0.33333333       0.50000000 </v>
    <v>       0.66666667       0.33333333       0.50000000 </v>
    <v>       0.00000000       0.66666667       0.50000000 </v>
    <v>       0.33333333       0.66666667       0.50000000 </v>
    <v>       0.66666667       0.66666667       0.50000000 </v>
    <v>       0.22222222       0.11111111       0.49950000 </v>
    <v>       0.55555556       0.11111111       0.50000000 </v>
    <v>       0.88888889       0.11111111       0.50000000 </v>
    <v>       0.22222222       0.44444444       0.50000000 </v>
    <v>       0.55555556       0.44444444       0.50000000 </v>
    <v>       0.88888889       0.44444444       0.50000000 </v>
    <v>       0.22222222       0.77777778       0.50000000 </v>
    <v>       0.55555556       0.77777778       0.50000000 </v>
    <v>       0.88888889       0.77777778       0.50000000 </v>
   </varray>
  </structure>
  <varray name="forces" >
   <v>       0.59753906      -0.00750929      -0.06271819 </v>
   <v>      -0.05025729       0.01376493      -0.06148491 </v>
   <v>      -0.05084804      -0.01365559       0.00931237 </v>
   <v>       0.00567784       0.04607052      -0.00332585 </v>
   <v>       0.00565884      -0.04626641      -0.06164973 </v>
   <v>      -0.03047415       0.00020417      -0.00322764 </v>
   <v>       0.00543866       0.01883828      -0.00322306 </v>
   <v>      -0.03047585       0.00021542       0.00916263 </v>
   <v>       0.00590283      -0.01865584       0.00918311 </v>
   <v>      -0.19693133      -0.05098148       0.14239919 </v>
   <v>       0.00114159      -0.00022278       0.00494876 </v>
   <v>      -0.20788948       0.05838008       0.00494261 </v>
   <v>      -0.02160724      -0.00018463       0.00490879 </v>
   <v>       0.01910992      -0.01054524       0.00499309 </v>
   <v>       0.01911468       0.01020624      -0.00202337 </v>
   <v>       0.01853378      -0.02298300       0.00490208 </v>
   <v>       0.01812924       0.02313222      -0.00202928 </v>
   <v>      -0.10776306       0.00019239       0.00492939 </v>
  </varray>
  <varray name="stress" >
   <v>      -0.14991923      -0.06664590       0.00332041 </v>
   <v>      -0.06664589      -0.15794526       0.00085833 </v>
   <v>       0.00332040       0.00085834      -0.56818377 </v>
  </varray>
  <energy>
   <i name="e_fr_energy">   -166.07422002 </i>
   <i name="e_wo_entrp">   -166.07201597 </i>
   <i name="e_0_energy">   -166.07311800 </i>
  </energy>
  <time name="totalsc">  142.20  141.64</time>
  <eigenvalues>
   <array>
    <dimension dim="1">band</dimension>
    <dimension dim="2">kpoint</dimension>
    <dimension dim="3">spin</dimension>
    <field>eigene</field>
    <field>occ</field>
    <set>
     <set comment="spin 1">
      <set comment="kpoint 1">
       <r>  -22.2559    1.0000 </r>
       <r>  -19.6944    1.0000 </r>
       <r>  -19.6757    1.0000 </r>
       <r>  -19.6733    1.0000 </r>
       <r>  -19.6733    1.0000 </r>
       <r>  -19.6709    1.0000 </r>
       <r>  -19.6525    1.0000 </r>
       <r>  -15.3556    1.0000 </r>
       <r>  -15.3410    1.0000 </r>
       <r>  -15.3404    1.0000 </r>
       <r>  -15.3261    1.0000 </r>
       <r>  -13.2920    1.0000 </r>
       <r>  -13.2873    1.0000 </r>
       <r>  -12.3973    1.0000 </r>
       <r>  -12.3828    1.0000 </r>
       <r>  -12.3747    1.0000 </r>
       <r>  -12.3746    1.0000 </r>
       <r>  -12.3664    1.0000 </r>
       <r>  -12.3518    1.0000 </r>
       <r>  -10.3599    1.0000 </r>
       <r>   -8.5506    1.0000 </r>
       <r>   -8.5273    1.0000 </r>
       <r>   -8.5236    1.0000 </r>
       <r>   -8.5235    1.0000 </r>
       <r>   -8.5198    1.0000 </r>
       <r>   -8.4963    1.0000 </r>
       <r>   -7.3887    1.0000 </r>
       <r>   -7.3721    1.0000 </r>
       <r>   -7.3708    1.0000 </r>
       <r>   -7.3708    1.0000 </r>
       <r>   -7.3696    1.0000 </r>
       <r>   -7.3531    1.0000 </r>
       <r>   -5.8008    1.0000 </r>
       <r>   -5.7678    1.0000 </r>
       <r>   -2.7703    0.6643 </r>
       <r>   -2.7553    0.5000 </r>
       <r>   -2.7552    0.4995 </r>
       <r>   -2.7403    0.3362 </r>
       <r>    0.5196    0.0000 </r>
       <r>    1.3121    0.0000 </r>
       <r>    1.6362    0.0000 </r>
       <r>    2.1240    0.0000 </r>
       <r>    2.1423    0.0000 </r>
       <r>    2.1442    0.0000 </r>
       <r>    2.1451    0.0000 </r>
       <r>    2.1511    0.0000 </r>
      </set>
      <set comment="kpoint 2">
       <r>  -22.2023    1.0000 </r>
       <r>  -20.3489    1.0000 </r>
       <r>  -19.9885    1.0000 </r>
       <r>  -19.9804    1.0000 </r>
       <r>  -19.2666    1.0000 </r>
       <r>  -19.2583    1.0000 </r>
       <r>  -18.9058    1.0000 </r>
       <r>  -16.0002    1.0000 </r>
       <r>  -15.9898    1.0000 </r>
       <r>  -14.9191    1.0000 </r>
       <r>  -14.9088    1.0000 </r>
       <r>  -13.5929    1.0000 </r>
       <r>  -12.9796    1.0000 </r>
       <r>  -12.9711    1.0000 </r>
       <r>  -12.9551    1.0000 </r>
       <r>  -12.9506    1.0000 </r>
       <r>  -11.7435    1.0000 </r>
       <r>  -11.7334    1.0000 </r>
       <r>  -11.1114    1.0000 </r>
       <r>  -10.2959    1.0000 </r>
       <r>   -8.8685    1.0000 </r>
       <r>   -8.8545    1.0000 </r>
       <r>   -8.8346    1.0000 </r>
       <r>   -8.5127    1.0000 </r>
       <r>   -8.4970    1.0000 </r>
       <r>   -8.1395    1.0000 </r>
       <r>   -8.1281    1.0000 </r>
       <r>   -7.7163    1.0000 </r>
       <r>   -7.7088    1.0000 </r>
       <r>   -6.9257    1.0000 </r>
       <r>   -6.9182    1.0000 </r>
       <r>   -6.5596    1.0000 </r>
       <r>   -5.9916    1.0000 </r>
       <r>   -5.9130    1.0000 </r>
       <r>   -3.5302    1.0000 </r>
       <r>   -3.5226    1.0000 </r>
       <r>   -2.0091    0.0000 </r>
       <r>   -2.0008    0.0000 </r>
       <r>    0.5921    0.0000 </r>
       <r>    0.8815    0.0000 </r>
       <r>    1.3857    0.0000 </r>
       <r>    1.4663    0.0000 </r>
       <r>    1.4768    0.0000 </r>
       <r>    1.7107    0.0000 </r>
       <r>    2.6299    0.0000 </r>
       <r>    2.7527    0.0000 </r>
      </set>
      <set comment="kpoint 3">
       <r>  -22.2023    1.0000 </r>
       <r>  -20.3491    1.0000 </r>
       <r>  -19.9920    1.0000 </r>
       <r>  -19.9763    1.0000 </r>
       <r>  -19.2704    1.0000 </r>
       <r>  -19.2545    1.0000 </r>
       <r>  -18.9060    1.0000 </r>
       <r>  -16.0029    1.0000 </r>
       <r>  -15.9878    1.0000 </r>
       <r>  -14.9203    1.0000 </r>
       <r>  -14.9061    1.0000 </r>
       <r>  -13.5978    1.0000 </r>
       <r>  -12.9770    1.0000 </r>
       <r>  -12.9656    1.0000 </r>
       <r>  -12.9603    1.0000 </r>
       <r>  -12.9498    1.0000 </r>
       <r>  -11.7422    1.0000 </r>
       <r>  -11.7282    1.0000 </r>
       <r>  -11.1173    1.0000 </r>
       <r>  -10.2959    1.0000 </r>
       <r>   -8.8729    1.0000 </r>
       <r>   -8.8577    1.0000 </r>
       <r>   -8.8263    1.0000 </r>
       <r>   -8.5165    1.0000 </r>
       <r>   -8.5023    1.0000 </r>
       <r>   -8.1313    1.0000 </r>
       <r>   -8.1270    1.0000 </r>
       <r>   -7.7201    1.0000 </r>
       <r>   -7.7066    1.0000 </r>
       <r>   -6.9295    1.0000 </r>
       <r>   -6.9161    1.0000 </r>
       <r>   -6.5569    1.0000 </r>
       <r>   -6.0069    1.0000 </r>
       <r>   -5.8975    1.0000 </r>
       <r>   -3.5337    1.0000 </r>
       <r>   -3.5196    1.0000 </r>
       <r>   -2.0127    0.0000 </r>
       <r>   -1.9965    0.0000 </r>
       <r>    0.5921    0.0000 </r>
       <r>    0.8749    0.0000 </r>
       <r>    1.3857    0.0000 </r>
       <r>    1.4636    0.0000 </r>
       <r>    1.4839    0.0000 </r>
       <r>    1.7107    0.0000 </r>
       <r>    2.6299    0.0000 </r>
       <r>    2.7508    0.0000 </r>
      </set>
      <set comment="kpoint 4">
       <r>  -22.2024    1.0000 </r>
       <r>  -20.3493    1.0000 </r>
       <r>  -19.9882    1.0000 </r>
       <r>  -19.9801    1.0000 </r>
       <r>  -19.2665    1.0000 </r>
       <r>  -19.2582    1.0000 </r>
       <r>  -18.9061    1.0000 </r>
       <r>  -16.0008    1.0000 </r>
       <r>  -15.9905    1.0000 </r>
       <r>  -14.9176    1.0000 </r>
       <r>  -14.9075    1.0000 </r>
       <r>  -13.6023    1.0000 </r>
       <r>  -12.9755    1.0000 </r>
       <r>  -12.9676    1.0000 </r>
       <r>  -12.9573    1.0000 </r>
       <r>  -12.9491    1.0000 </r>
       <r>  -11.7369    1.0000 </r>
       <r>  -11.7266    1.0000 </r>
       <r>  -11.1235    1.0000 </r>
       <r>  -10.2959    1.0000 </r>
       <r>   -8.8744    1.0000 </r>
       <r>   -8.8603    1.0000 </r>
       <r>   -8.8215    1.0000 </r>
       <r>   -8.5210    1.0000 </r>
       <r>   -8.5064    1.0000 </r>
       <r>   -8.1260    1.0000 </r>
       <r>   -8.1235    1.0000 </r>
       <r>   -7.7180    1.0000 </r>
       <r>   -7.7106    1.0000 </r>
       <r>   -6.9272    1.0000 </r>
       <r>   -6.9199    1.0000 </r>
       <r>   -6.5542    1.0000 </r>
       <r>   -6.0186    1.0000 </r>
       <r>   -5.8857    1.0000 </r>
       <r>   -3.5306    1.0000 </r>
       <r>   -3.5232    1.0000 </r>
       <r>   -2.0084    0.0000 </r>
       <r>   -2.0002    0.0000 </r>
       <r>    0.5921    0.0000 </r>
       <r>    0.8682    0.0000 </r>
       <r>    1.3857    0.0000 </r>
       <r>    1.4707    0.0000 </r>
       <r>    1.4810    0.0000 </r>
       <r>    1.7107    0.0000 </r>
       <r>    2.6299    0.0000 </r>
       <r>    2.7588    0.0000 </r>
      </set>
      <set comment="kpoint 5">
       <r>  -22.0418    1.0000 </r>
       <r>  -20.9265    1.0000 </r>
       <r>  -20.1970    1.0000 </r>
       <r>  -20.1889    1.0000 </r>
       <r>  -18.7596    1.0000 </r>
       <r>  -18.7510    1.0000 </r>
       <r>  -18.0631    1.0000 </r>
       <r>  -16.7496    1.0000 </r>
       <r>  -16.7400    1.0000 </r>
       <r>  -14.7490    1.0000 </r>
       <r>  -14.6299    1.0000 </r>
       <r>  -14.6209    1.0000 </r>
       <r>  -13.5056    1.0000 </r>
       <r>  -13.4970    1.0000 </r>
       <r>  -12.1867    1.0000 </r>
       <r>  -12.1787    1.0000 </r>
       <r>  -11.1083    1.0000 </r>
       <r>  -11.0974    1.0000 </r>
       <r>  -10.1048    1.0000 </r>
       <r>   -9.8531    1.0000 </r>
       <r>   -9.4988    1.0000 </r>
       <r>   -9.4863    1.0000 </r>
       <r>   -9.0448    1.0000 </r>
       <r>   -8.7929    1.0000 </r>
       <r>   -8.7622    1.0000 </r>
       <r>   -8.7473    1.0000 </r>
       <r>   -7.9476    1.0000 </r>
       <r>   -7.9401    1.0000 </r>
       <r>   -7.6800    1.0000 </r>
       <r>   -6.6102    1.0000 </r>
       <r>   -6.3806    1.0000 </r>
       <r>   -6.3731    1.0000 </r>
       <r>   -6.2289    1.0000 </r>
       <r>   -5.7692    1.0000 </r>
       <r>   -4.3022    1.0000 </r>
       <r>   -4.2948    1.0000 </r>
       <r>   -1.2879    0.0000 </r>
       <r>   -1.2791    0.0000 </r>
       <r>   -0.2294    0.0000 </r>
       <r>    0.7800    0.0000 </r>
       <r>    0.7902    0.0000 </r>
       <r>    0.8121    0.0000 </r>
       <r>    1.6064    0.0000 </r>
       <r>    1.9341    0.0000 </r>
       <r>    2.3341    0.0000 </r>
       <r>    2.8512    0.0000 </r>
      </set>
      <set comment="kpoint 6">
       <r>  -22.0418    1.0000 </r>
       <r>  -20.9267    1.0000 </r>
       <r>  -20.2005    1.0000 </r>
       <r>  -20.1848    1.0000 </r>
       <r>  -18.7633    1.0000 </r>
       <r>  -18.7474    1.0000 </r>
       <r>  -18.0629    1.0000 </r>
       <r>  -16.7530    1.0000 </r>
       <r>  -16.7374    1.0000 </r>
       <r>  -14.7535    1.0000 </r>
       <r>  -14.6309    1.0000 </r>
       <r>  -14.6175    1.0000 </r>
       <r>  -13.5056    1.0000 </r>
       <r>  -13.4929    1.0000 </r>
       <r>  -12.1919    1.0000 </r>
       <r>  -12.1759    1.0000 </r>
       <r>  -11.1052    1.0000 </r>
       <r>  -11.0910    1.0000 </r>
       <r>  -10.1047    1.0000 </r>
       <r>   -9.8601    1.0000 </r>
       <r>   -9.5034    1.0000 </r>
       <r>   -9.4872    1.0000 </r>
       <r>   -9.0379    1.0000 </r>
       <r>   -8.7926    1.0000 </r>
       <r>   -8.7667    1.0000 </r>
       <r>   -8.7544    1.0000 </r>
       <r>   -7.9516    1.0000 </r>
       <r>   -7.9379    1.0000 </r>
       <r>   -7.6710    1.0000 </r>
       <r>   -6.6228    1.0000 </r>
       <r>   -6.3843    1.0000 </r>
       <r>   -6.3708    1.0000 </r>
       <r>   -6.2159    1.0000 </r>
       <r>   -5.7649    1.0000 </r>
       <r>   -4.3057    1.0000 </r>
       <r>   -4.2922    1.0000 </r>
       <r>   -1.2915    0.0000 </r>
       <r>   -1.2741    0.0000 </r>
       <r>   -0.2380    0.0000 </r>
       <r>    0.7766    0.0000 </r>
       <r>    0.7971    0.0000 </r>
       <r>    0.8121    0.0000 </r>
       <r>    1.6064    0.0000 </r>
       <r>    1.9341    0.0000 </r>
       <r>    2.3341    0.0000 </r>
       <r>    2.8512    0.0000 </r>
      </set>
      <set comment="kpoint 7">
       <r>  -22.0419    1.0000 </r>
       <r>  -20.9268    1.0000 </r>
       <r>  -20.1965    1.0000 </r>
       <r>  -20.1885    1.0000 </r>
       <r>  -18.7596    1.0000 </r>
       <r>  -18.7511    1.0000 </r>
       <r>  -18.0627    1.0000 </r>
       <r>  -16.7502    1.0000 </r>
       <r>  -16.7407    1.0000 </r>
       <r>  -14.7583    1.0000 </r>
       <r>  -14.6274    1.0000 </r>
       <r>  -14.6185    1.0000 </r>
       <r>  -13.5017    1.0000 </r>
       <r>  -13.4933    1.0000 </r>
       <r>  -12.1889    1.0000 </r>
       <r>  -12.1807    1.0000 </r>
       <r>  -11.0986    1.0000 </r>
       <r>  -11.0877    1.0000 </r>
       <r>  -10.1046    1.0000 </r>
       <r>   -9.8675    1.0000 </r>
       <r>   -9.5040    1.0000 </r>
       <r>   -9.4914    1.0000 </r>
       <r>   -9.0317    1.0000 </r>
       <r>   -8.7920    1.0000 </r>
       <r>   -8.7733    1.0000 </r>
       <r>   -8.7593    1.0000 </r>
       <r>   -7.9494    1.0000 </r>
       <r>   -7.9418    1.0000 </r>
       <r>   -7.6623    1.0000 </r>
       <r>   -6.6346    1.0000 </r>
       <r>   -6.3821    1.0000 </r>
       <r>   -6.3746    1.0000 </r>
       <r>   -6.2037    1.0000 </r>
       <r>   -5.7605    1.0000 </r>
       <r>   -4.3030    1.0000 </r>
       <r>   -4.2958    1.0000 </r>
       <r>   -1.2866    0.0000 </r>
       <r>   -1.2779    0.0000 </r>
       <r>   -0.2464    0.0000 </r>
       <r>    0.7830    0.0000 </r>
       <r>    0.7941    0.0000 </r>
       <r>    0.8122    0.0000 </r>
       <r>    1.6065    0.0000 </r>
       <r>    1.9341    0.0000 </r>
       <r>    2.3341    0.0000 </r>
       <r>    2.8512    0.0000 </r>
      </set>
      <set comment="kpoint 8">
       <r>  -21.7750    1.0000 </r>
       <r>  -21.4025    1.0000 </r>
       <r>  -20.3015    1.0000 </r>
       <r>  -20.2935    1.0000 </r>
       <r>  -18.1626    1.0000 </r>
       <r>  -18.1538    1.0000 </r>
       <r>  -17.4857    1.0000 </r>
       <r>  -17.4765    1.0000 </r>
       <r>  -17.2306    1.0000 </r>
       <r>  -15.7394    1.0000 </r>
       <r>  -14.3281    1.0000 </r>
       <r>  -14.3195    1.0000 </r>
       <r>  -13.9567    1.0000 </r>
       <r>  -13.9485    1.0000 </r>
       <r>  -11.2618    1.0000 </r>
       <r>  -11.2524    1.0000 </r>
       <r>  -10.6108    1.0000 </r>
       <r>  -10.5994    1.0000 </r>
       <r>  -10.3309    1.0000 </r>
       <r>  -10.3203    1.0000 </r>
       <r>   -9.7879    1.0000 </r>
       <r>   -9.3487    1.0000 </r>
       <r>   -9.1509    1.0000 </r>
       <r>   -9.0874    1.0000 </r>
       <r>   -9.0754    1.0000 </r>
       <r>   -8.6371    1.0000 </r>
       <r>   -8.0640    1.0000 </r>
       <r>   -8.0565    1.0000 </r>
       <r>   -7.5278    1.0000 </r>
       <r>   -7.1788    1.0000 </r>
       <r>   -6.6752    1.0000 </r>
       <r>   -5.7501    1.0000 </r>
       <r>   -5.7428    1.0000 </r>
       <r>   -5.2047    1.0000 </r>
       <r>   -5.0500    1.0000 </r>
       <r>   -5.0427    1.0000 </r>
       <r>   -0.9598    0.0000 </r>
       <r>   -0.5905    0.0000 </r>
       <r>   -0.5810    0.0000 </r>
       <r>    0.0958    0.0000 </r>
       <r>    0.1054    0.0000 </r>
       <r>    1.1735    0.0000 </r>
       <r>    1.6817    0.0000 </r>
       <r>    1.9738    0.0000 </r>
       <r>    2.3065    0.0000 </r>
       <r>    2.4867    0.0000 </r>
      </set>
      <set comment="kpoint 9">
       <r>  -21.7750    1.0000 </r>
       <r>  -21.4028    1.0000 </r>
       <r>  -20.3051    1.0000 </r>
       <r>  -20.2894    1.0000 </r>
       <r>  -18.1662    1.0000 </r>
       <r>  -18.1502    1.0000 </r>
       <r>  -17.4894    1.0000 </r>
       <r>  -17.4735    1.0000 </r>
       <r>  -17.2288    1.0000 </r>
       <r>  -15.7457    1.0000 </r>
       <r>  -14.3285    1.0000 </r>
       <r>  -14.3158    1.0000 </r>
       <r>  -13.9571    1.0000 </r>
       <r>  -13.9446    1.0000 </r>
       <r>  -11.2673    1.0000 </r>
       <r>  -11.2504    1.0000 </r>
       <r>  -10.6039    1.0000 </r>
       <r>  -10.5911    1.0000 </r>
       <r>  -10.3360    1.0000 </r>
       <r>  -10.3192    1.0000 </r>
       <r>   -9.7877    1.0000 </r>
       <r>   -9.3484    1.0000 </r>
       <r>   -9.1454    1.0000 </r>
       <r>   -9.0930    1.0000 </r>
       <r>   -9.0860    1.0000 </r>
       <r>   -8.6460    1.0000 </r>
       <r>   -8.0680    1.0000 </r>
       <r>   -8.0543    1.0000 </r>
       <r>   -7.5388    1.0000 </r>
       <r>   -7.1680    1.0000 </r>
       <r>   -6.6639    1.0000 </r>
       <r>   -5.7536    1.0000 </r>
       <r>   -5.7404    1.0000 </r>
       <r>   -5.1983    1.0000 </r>
       <r>   -5.0537    1.0000 </r>
       <r>   -5.0404    1.0000 </r>
       <r>   -0.9701    0.0000 </r>
       <r>   -0.5941    0.0000 </r>
       <r>   -0.5756    0.0000 </r>
       <r>    0.0923    0.0000 </r>
       <r>    0.1116    0.0000 </r>
       <r>    1.1735    0.0000 </r>
       <r>    1.6817    0.0000 </r>
       <r>    1.9738    0.0000 </r>
       <r>    2.3065    0.0000 </r>
       <r>    2.4868    0.0000 </r>
      </set>
      <set comment="kpoint 10">
       <r>  -21.7751    1.0000 </r>
       <r>  -21.4027    1.0000 </r>
       <r>  -20.3011    1.0000 </r>
       <r>  -20.2931    1.0000 </r>
       <r>  -18.1628    1.0000 </r>
       <r>  -18.1540    1.0000 </r>
       <r>  -17.4861    1.0000 </r>
       <r>  -17.4771    1.0000 </r>
       <r>  -17.2265    1.0000 </r>
       <r>  -15.7520    1.0000 </r>
       <r>  -14.3249    1.0000 </r>
       <r>  -14.3167    1.0000 </r>
       <r>  -13.9533    1.0000 </r>
       <r>  -13.9450    1.0000 </r>
       <r>  -11.2651    1.0000 </r>
       <r>  -11.2554    1.0000 </r>
       <r>  -10.5950    1.0000 </r>
       <r>  -10.5842    1.0000 </r>
       <r>  -10.3354    1.0000 </r>
       <r>  -10.3240    1.0000 </r>
       <r>   -9.7875    1.0000 </r>
       <r>   -9.3479    1.0000 </r>
       <r>   -9.1385    1.0000 </r>
       <r>   -9.1048    1.0000 </r>
       <r>   -9.0925    1.0000 </r>
       <r>   -8.6545    1.0000 </r>
       <r>   -8.0658    1.0000 </r>
       <r>   -8.0583    1.0000 </r>
       <r>   -7.5485    1.0000 </r>
       <r>   -7.1589    1.0000 </r>
       <r>   -6.6526    1.0000 </r>
       <r>   -5.7514    1.0000 </r>
       <r>   -5.7442    1.0000 </r>
       <r>   -5.1920    1.0000 </r>
       <r>   -5.0511    1.0000 </r>
       <r>   -5.0439    1.0000 </r>
       <r>   -0.9809    0.0000 </r>
       <r>   -0.5883    0.0000 </r>
       <r>   -0.5793    0.0000 </r>
       <r>    0.0984    0.0000 </r>
       <r>    0.1082    0.0000 </r>
       <r>    1.1736    0.0000 </r>
       <r>    1.6817    0.0000 </r>
       <r>    1.9739    0.0000 </r>
       <r>    2.3065    0.0000 </r>
       <r>    2.4869    0.0000 </r>
      </set>
      <set comment="kpoint 11">
       <r>  -22.0953    1.0000 </r>
       <r>  -20.6167    1.0000 </r>
       <r>  -20.6053    1.0000 </r>
       <r>  -19.5273    1.0000 </r>
       <r>  -19.5118    1.0000 </r>
       <r>  -18.4608    1.0000 </r>
       <r>  -18.4489    1.0000 </r>
       <r>  -16.7793    1.0000 </r>
       <r>  -16.1575    1.0000 </r>
       <r>  -15.2490    1.0000 </r>
       <r>  -14.2497    1.0000 </r>
       <r>  -14.1650    1.0000 </r>
       <r>  -14.1468    1.0000 </r>
       <r>  -12.6104    1.0000 </r>
       <r>  -12.3182    1.0000 </r>
       <r>  -12.3072    1.0000 </r>
       <r>  -12.2653    1.0000 </r>
       <r>  -10.4953    1.0000 </r>
       <r>  -10.4730    1.0000 </r>
       <r>  -10.1683    1.0000 </r>
       <r>   -9.1795    1.0000 </r>
       <r>   -9.1625    1.0000 </r>
       <r>   -9.1334    1.0000 </r>
       <r>   -9.1181    1.0000 </r>
       <r>   -8.4308    1.0000 </r>
       <r>   -8.4218    1.0000 </r>
       <r>   -8.0881    1.0000 </r>
       <r>   -8.0669    1.0000 </r>
       <r>   -7.1963    1.0000 </r>
       <r>   -7.1822    1.0000 </r>
       <r>   -6.3952    1.0000 </r>
       <r>   -6.1452    1.0000 </r>
       <r>   -6.1107    1.0000 </r>
       <r>   -6.1016    1.0000 </r>
       <r>   -4.2618    1.0000 </r>
       <r>   -3.8927    1.0000 </r>
       <r>   -1.7194    0.0000 </r>
       <r>   -1.2591    0.0000 </r>
       <r>    0.2706    0.0000 </r>
       <r>    0.2839    0.0000 </r>
       <r>    0.7376    0.0000 </r>
       <r>    1.5329    0.0000 </r>
       <r>    1.8596    0.0000 </r>
       <r>    1.9972    0.0000 </r>
       <r>    2.0162    0.0000 </r>
       <r>    2.7774    0.0000 </r>
      </set>
      <set comment="kpoint 12">
       <r>  -22.0953    1.0000 </r>
       <r>  -20.6168    1.0000 </r>
       <r>  -20.6053    1.0000 </r>
       <r>  -19.5269    1.0000 </r>
       <r>  -19.5115    1.0000 </r>
       <r>  -18.4609    1.0000 </r>
       <r>  -18.4490    1.0000 </r>
       <r>  -16.7783    1.0000 </r>
       <r>  -16.1658    1.0000 </r>
       <r>  -15.2318    1.0000 </r>
       <r>  -14.2609    1.0000 </r>
       <r>  -14.1695    1.0000 </r>
       <r>  -14.1521    1.0000 </r>
       <r>  -12.5994    1.0000 </r>
       <r>  -12.3082    1.0000 </r>
       <r>  -12.2966    1.0000 </r>
       <r>  -12.2747    1.0000 </r>
       <r>  -10.5000    1.0000 </r>
       <r>  -10.4776    1.0000 </r>
       <r>  -10.1682    1.0000 </r>
       <r>   -9.1948    1.0000 </r>
       <r>   -9.1736    1.0000 </r>
       <r>   -9.1264    1.0000 </r>
       <r>   -9.1125    1.0000 </r>
       <r>   -8.4303    1.0000 </r>
       <r>   -8.4213    1.0000 </r>
       <r>   -8.0821    1.0000 </r>
       <r>   -8.0608    1.0000 </r>
       <r>   -7.1994    1.0000 </r>
       <r>   -7.1854    1.0000 </r>
       <r>   -6.4218    1.0000 </r>
       <r>   -6.1185    1.0000 </r>
       <r>   -6.1062    1.0000 </r>
       <r>   -6.0977    1.0000 </r>
       <r>   -4.2539    1.0000 </r>
       <r>   -3.9059    1.0000 </r>
       <r>   -1.7016    0.0000 </r>
       <r>   -1.2713    0.0000 </r>
       <r>    0.2620    0.0000 </r>
       <r>    0.2753    0.0000 </r>
       <r>    0.7377    0.0000 </r>
       <r>    1.5329    0.0000 </r>
       <r>    1.8596    0.0000 </r>
       <r>    2.0072    0.0000 </r>
       <r>    2.0260    0.0000 </r>
       <r>    2.7774    0.0000 </r>
      </set>
      <set comment="kpoint 13">
       <r>  -22.0953    1.0000 </r>
       <r>  -20.6112    1.0000 </r>
       <r>  -20.6108    1.0000 </r>
       <r>  -19.5196    1.0000 </r>
       <r>  -19.5192    1.0000 </r>
       <r>  -18.4549    1.0000 </r>
       <r>  -18.4548    1.0000 </r>
       <r>  -16.7786    1.0000 </r>
       <r>  -16.1618    1.0000 </r>
       <r>  -15.2403    1.0000 </r>
       <r>  -14.2565    1.0000 </r>
       <r>  -14.1624    1.0000 </r>
       <r>  -14.1533    1.0000 </r>
       <r>  -12.6048    1.0000 </r>
       <r>  -12.3102    1.0000 </r>
       <r>  -12.3066    1.0000 </r>
       <r>  -12.2684    1.0000 </r>
       <r>  -10.4937    1.0000 </r>
       <r>  -10.4791    1.0000 </r>
       <r>  -10.1683    1.0000 </r>
       <r>   -9.1797    1.0000 </r>
       <r>   -9.1757    1.0000 </r>
       <r>   -9.1289    1.0000 </r>
       <r>   -9.1160    1.0000 </r>
       <r>   -8.4270    1.0000 </r>
       <r>   -8.4251    1.0000 </r>
       <r>   -8.0835    1.0000 </r>
       <r>   -8.0655    1.0000 </r>
       <r>   -7.1915    1.0000 </r>
       <r>   -7.1902    1.0000 </r>
       <r>   -6.4090    1.0000 </r>
       <r>   -6.1312    1.0000 </r>
       <r>   -6.1073    1.0000 </r>
       <r>   -6.1009    1.0000 </r>
       <r>   -4.2578    1.0000 </r>
       <r>   -3.8994    1.0000 </r>
       <r>   -1.7104    0.0000 </r>
       <r>   -1.2653    0.0000 </r>
       <r>    0.2659    0.0000 </r>
       <r>    0.2800    0.0000 </r>
       <r>    0.7377    0.0000 </r>
       <r>    1.5329    0.0000 </r>
       <r>    1.8596    0.0000 </r>
       <r>    2.0094    0.0000 </r>
       <r>    2.0139    0.0000 </r>
       <r>    2.7774    0.0000 </r>
      </set>
      <set comment="kpoint 14">
       <r>  -21.8816    1.0000 </r>
       <r>  -21.1378    1.0000 </r>
       <r>  -20.7688    1.0000 </r>
       <r>  -19.6748    1.0000 </r>
       <r>  -18.9580    1.0000 </r>
       <r>  -17.9167    1.0000 </r>
       <r>  -17.5954    1.0000 </r>
       <r>  -17.5717    1.0000 </r>
       <r>  -16.6687    1.0000 </r>
       <r>  -15.2605    1.0000 </r>
       <r>  -15.2448    1.0000 </r>
       <r>  -14.6345    1.0000 </r>
       <r>  -13.7231    1.0000 </r>
       <r>  -12.8254    1.0000 </r>
       <r>  -11.9033    1.0000 </r>
       <r>  -11.6900    1.0000 </r>
       <r>  -11.3837    1.0000 </r>
       <r>  -10.0347    1.0000 </r>
       <r>   -9.9225    1.0000 </r>
       <r>   -9.9132    1.0000 </r>
       <r>   -9.7114    1.0000 </r>
       <r>   -9.6209    1.0000 </r>
       <r>   -9.2895    1.0000 </r>
       <r>   -9.2567    1.0000 </r>
       <r>   -9.0379    1.0000 </r>
       <r>   -8.6063    1.0000 </r>
       <r>   -8.2539    1.0000 </r>
       <r>   -7.5867    1.0000 </r>
       <r>   -7.3526    1.0000 </r>
       <r>   -7.1289    1.0000 </r>
       <r>   -6.5687    1.0000 </r>
       <r>   -6.5583    1.0000 </r>
       <r>   -5.5823    1.0000 </r>
       <r>   -5.3910    1.0000 </r>
       <r>   -5.0766    1.0000 </r>
       <r>   -4.4271    1.0000 </r>
       <r>   -1.3052    0.0000 </r>
       <r>   -0.6758    0.0000 </r>
       <r>   -0.4197    0.0000 </r>
       <r>   -0.2968    0.0000 </r>
       <r>    1.0281    0.0000 </r>
       <r>    1.2209    0.0000 </r>
       <r>    1.8270    0.0000 </r>
       <r>    2.0446    0.0000 </r>
       <r>    2.1575    0.0000 </r>
       <r>    2.3971    0.0000 </r>
      </set>
      <set comment="kpoint 15">
       <r>  -21.8817    1.0000 </r>
       <r>  -21.1379    1.0000 </r>
       <r>  -20.7688    1.0000 </r>
       <r>  -19.6743    1.0000 </r>
       <r>  -18.9578    1.0000 </r>
       <r>  -17.9165    1.0000 </r>
       <r>  -17.5943    1.0000 </r>
       <r>  -17.5722    1.0000 </r>
       <r>  -16.6734    1.0000 </r>
       <r>  -15.2557    1.0000 </r>
       <r>  -15.2412    1.0000 </r>
       <r>  -14.6397    1.0000 </r>
       <r>  -13.7338    1.0000 </r>
       <r>  -12.8150    1.0000 </r>
       <r>  -11.8919    1.0000 </r>
       <r>  -11.6787    1.0000 </r>
       <r>  -11.3944    1.0000 </r>
       <r>  -10.0479    1.0000 </r>
       <r>   -9.9226    1.0000 </r>
       <r>   -9.9130    1.0000 </r>
       <r>   -9.7046    1.0000 </r>
       <r>   -9.6344    1.0000 </r>
       <r>   -9.2849    1.0000 </r>
       <r>   -9.2590    1.0000 </r>
       <r>   -9.0377    1.0000 </r>
       <r>   -8.6064    1.0000 </r>
       <r>   -8.2531    1.0000 </r>
       <r>   -7.5814    1.0000 </r>
       <r>   -7.3547    1.0000 </r>
       <r>   -7.1504    1.0000 </r>
       <r>   -6.5705    1.0000 </r>
       <r>   -6.5375    1.0000 </r>
       <r>   -5.5770    1.0000 </r>
       <r>   -5.3852    1.0000 </r>
       <r>   -5.0706    1.0000 </r>
       <r>   -4.4393    1.0000 </r>
       <r>   -1.2867    0.0000 </r>
       <r>   -0.6858    0.0000 </r>
       <r>   -0.4323    0.0000 </r>
       <r>   -0.3065    0.0000 </r>
       <r>    1.0282    0.0000 </r>
       <r>    1.2310    0.0000 </r>
       <r>    1.8270    0.0000 </r>
       <r>    2.0446    0.0000 </r>
       <r>    2.1575    0.0000 </r>
       <r>    2.4047    0.0000 </r>
      </set>
      <set comment="kpoint 16">
       <r>  -21.8817    1.0000 </r>
       <r>  -21.1380    1.0000 </r>
       <r>  -20.7686    1.0000 </r>
       <r>  -19.6742    1.0000 </r>
       <r>  -18.9583    1.0000 </r>
       <r>  -17.9170    1.0000 </r>
       <r>  -17.5948    1.0000 </r>
       <r>  -17.5707    1.0000 </r>
       <r>  -16.6711    1.0000 </r>
       <r>  -15.2596    1.0000 </r>
       <r>  -15.2498    1.0000 </r>
       <r>  -14.6303    1.0000 </r>
       <r>  -13.7249    1.0000 </r>
       <r>  -12.8230    1.0000 </r>
       <r>  -11.9014    1.0000 </r>
       <r>  -11.6792    1.0000 </r>
       <r>  -11.3880    1.0000 </r>
       <r>  -10.0375    1.0000 </r>
       <r>   -9.9154    1.0000 </r>
       <r>   -9.9058    1.0000 </r>
       <r>   -9.7172    1.0000 </r>
       <r>   -9.6341    1.0000 </r>
       <r>   -9.2784    1.0000 </r>
       <r>   -9.2708    1.0000 </r>
       <r>   -9.0369    1.0000 </r>
       <r>   -8.6075    1.0000 </r>
       <r>   -8.2693    1.0000 </r>
       <r>   -7.5686    1.0000 </r>
       <r>   -7.3551    1.0000 </r>
       <r>   -7.1483    1.0000 </r>
       <r>   -6.5672    1.0000 </r>
       <r>   -6.5395    1.0000 </r>
       <r>   -5.5855    1.0000 </r>
       <r>   -5.3804    1.0000 </r>
       <r>   -5.0748    1.0000 </r>
       <r>   -4.4319    1.0000 </r>
       <r>   -1.2980    0.0000 </r>
       <r>   -0.6947    0.0000 </r>
       <r>   -0.4236    0.0000 </r>
       <r>   -0.2901    0.0000 </r>
       <r>    1.0282    0.0000 </r>
       <r>    1.2211    0.0000 </r>
       <r>    1.8270    0.0000 </r>
       <r>    2.0447    0.0000 </r>
       <r>    2.1575    0.0000 </r>
       <r>    2.4063    0.0000 </r>
      </set>
      <set comment="kpoint 17">
       <r>  -21.8817    1.0000 </r>
       <r>  -21.1380    1.0000 </r>
       <r>  -20.7686    1.0000 </r>
       <r>  -19.6742    1.0000 </r>
       <r>  -18.9579    1.0000 </r>
       <r>  -17.9169    1.0000 </r>
       <r>  -17.5940    1.0000 </r>
       <r>  -17.5717    1.0000 </r>
       <r>  -16.6733    1.0000 </r>
       <r>  -15.2615    1.0000 </r>
       <r>  -15.2411    1.0000 </r>
       <r>  -14.6351    1.0000 </r>
       <r>  -13.7315    1.0000 </r>
       <r>  -12.8170    1.0000 </r>
       <r>  -11.8941    1.0000 </r>
       <r>  -11.6750    1.0000 </r>
       <r>  -11.3940    1.0000 </r>
       <r>  -10.0451    1.0000 </r>
       <r>   -9.9166    1.0000 </r>
       <r>   -9.9102    1.0000 </r>
       <r>   -9.7105    1.0000 </r>
       <r>   -9.6385    1.0000 </r>
       <r>   -9.2787    1.0000 </r>
       <r>   -9.2681    1.0000 </r>
       <r>   -9.0371    1.0000 </r>
       <r>   -8.6072    1.0000 </r>
       <r>   -8.2635    1.0000 </r>
       <r>   -7.5710    1.0000 </r>
       <r>   -7.3557    1.0000 </r>
       <r>   -7.1561    1.0000 </r>
       <r>   -6.5693    1.0000 </r>
       <r>   -6.5316    1.0000 </r>
       <r>   -5.5810    1.0000 </r>
       <r>   -5.3800    1.0000 </r>
       <r>   -5.0715    1.0000 </r>
       <r>   -4.4384    1.0000 </r>
       <r>   -1.2881    0.0000 </r>
       <r>   -0.6953    0.0000 </r>
       <r>   -0.4296    0.0000 </r>
       <r>   -0.2996    0.0000 </r>
       <r>    1.0282    0.0000 </r>
       <r>    1.2277    0.0000 </r>
       <r>    1.8270    0.0000 </r>
       <r>    2.0446    0.0000 </r>
       <r>    2.1575    0.0000 </r>
       <r>    2.4084    0.0000 </r>
      </set>
      <set comment="kpoint 18">
       <r>  -21.8816    1.0000 </r>
       <r>  -21.1380    1.0000 </r>
       <r>  -20.7686    1.0000 </r>
       <r>  -19.6745    1.0000 </r>
       <r>  -18.9583    1.0000 </r>
       <r>  -17.9169    1.0000 </r>
       <r>  -17.5942    1.0000 </r>
       <r>  -17.5723    1.0000 </r>
       <r>  -16.6688    1.0000 </r>
       <r>  -15.2604    1.0000 </r>
       <r>  -15.2503    1.0000 </r>
       <r>  -14.6299    1.0000 </r>
       <r>  -13.7206    1.0000 </r>
       <r>  -12.8271    1.0000 </r>
       <r>  -11.9062    1.0000 </r>
       <r>  -11.6865    1.0000 </r>
       <r>  -11.3831    1.0000 </r>
       <r>  -10.0327    1.0000 </r>
       <r>   -9.9164    1.0000 </r>
       <r>   -9.9096    1.0000 </r>
       <r>   -9.7173    1.0000 </r>
       <r>   -9.6250    1.0000 </r>
       <r>   -9.2857    1.0000 </r>
       <r>   -9.2631    1.0000 </r>
       <r>   -9.0373    1.0000 </r>
       <r>   -8.6071    1.0000 </r>
       <r>   -8.2647    1.0000 </r>
       <r>   -7.5761    1.0000 </r>
       <r>   -7.3535    1.0000 </r>
       <r>   -7.1348    1.0000 </r>
       <r>   -6.5667    1.0000 </r>
       <r>   -6.5530    1.0000 </r>
       <r>   -5.5862    1.0000 </r>
       <r>   -5.3858    1.0000 </r>
       <r>   -5.0776    1.0000 </r>
       <r>   -4.4263    1.0000 </r>
       <r>   -1.3066    0.0000 </r>
       <r>   -0.6848    0.0000 </r>
       <r>   -0.4188    0.0000 </r>
       <r>   -0.2888    0.0000 </r>
       <r>    1.0281    0.0000 </r>
       <r>    1.2177    0.0000 </r>
       <r>    1.8270    0.0000 </r>
       <r>    2.0447    0.0000 </r>
       <r>    2.1575    0.0000 </r>
       <r>    2.4324    0.0000 </r>
      </set>
      <set comment="kpoint 19">
       <r>  -21.8816    1.0000 </r>
       <r>  -21.1377    1.0000 </r>
       <r>  -20.7690    1.0000 </r>
       <r>  -19.6746    1.0000 </r>
       <r>  -18.9580    1.0000 </r>
       <r>  -17.9164    1.0000 </r>
       <r>  -17.5962    1.0000 </r>
       <r>  -17.5707    1.0000 </r>
       <r>  -16.6712    1.0000 </r>
       <r>  -15.2518    1.0000 </r>
       <r>  -15.2464    1.0000 </r>
       <r>  -14.6395    1.0000 </r>
       <r>  -13.7297    1.0000 </r>
       <r>  -12.8192    1.0000 </r>
       <r>  -11.8962    1.0000 </r>
       <r>  -11.6864    1.0000 </r>
       <r>  -11.3890    1.0000 </r>
       <r>  -10.0422    1.0000 </r>
       <r>   -9.9263    1.0000 </r>
       <r>   -9.9134    1.0000 </r>
       <r>   -9.7053    1.0000 </r>
       <r>   -9.6258    1.0000 </r>
       <r>   -9.2891    1.0000 </r>
       <r>   -9.2547    1.0000 </r>
       <r>   -9.0380    1.0000 </r>
       <r>   -8.6060    1.0000 </r>
       <r>   -8.2481    1.0000 </r>
       <r>   -7.5896    1.0000 </r>
       <r>   -7.3532    1.0000 </r>
       <r>   -7.1368    1.0000 </r>
       <r>   -6.5699    1.0000 </r>
       <r>   -6.5513    1.0000 </r>
       <r>   -5.5777    1.0000 </r>
       <r>   -5.3909    1.0000 </r>
       <r>   -5.0729    1.0000 </r>
       <r>   -4.4337    1.0000 </r>
       <r>   -1.2952    0.0000 </r>
       <r>   -0.6762    0.0000 </r>
       <r>   -0.4273    0.0000 </r>
       <r>   -0.3050    0.0000 </r>
       <r>    1.0282    0.0000 </r>
       <r>    1.2276    0.0000 </r>
       <r>    1.8270    0.0000 </r>
       <r>    2.0446    0.0000 </r>
       <r>    2.1575    0.0000 </r>
       <r>    2.3990    0.0000 </r>
      </set>
      <set comment="kpoint 20">
       <r>  -21.5676    1.0000 </r>
       <r>  -21.5564    1.0000 </r>
       <r>  -20.8216    1.0000 </r>
       <r>  -19.7265    1.0000 </r>
       <r>  -18.3141    1.0000 </r>
       <r>  -18.2978    1.0000 </r>
       <r>  -17.3156    1.0000 </r>
       <r>  -17.2986    1.0000 </r>
       <r>  -16.9904    1.0000 </r>
       <r>  -15.9312    1.0000 </r>
       <r>  -15.0185    1.0000 </r>
       <r>  -15.0055    1.0000 </r>
       <r>  -13.2893    1.0000 </r>
       <r>  -13.2755    1.0000 </r>
       <r>  -11.3661    1.0000 </r>
       <r>  -10.9935    1.0000 </r>
       <r>  -10.9813    1.0000 </r>
       <r>  -10.5031    1.0000 </r>
       <r>  -10.4918    1.0000 </r>
       <r>   -9.8965    1.0000 </r>
       <r>   -9.6447    1.0000 </r>
       <r>   -9.5407    1.0000 </r>
       <r>   -9.5314    1.0000 </r>
       <r>   -9.3421    1.0000 </r>
       <r>   -8.6666    1.0000 </r>
       <r>   -8.4086    1.0000 </r>
       <r>   -8.1268    1.0000 </r>
       <r>   -8.1038    1.0000 </r>
       <r>   -7.4079    1.0000 </r>
       <r>   -7.0770    1.0000 </r>
       <r>   -7.0494    1.0000 </r>
       <r>   -5.8629    1.0000 </r>
       <r>   -5.8491    1.0000 </r>
       <r>   -5.0701    1.0000 </r>
       <r>   -5.0167    1.0000 </r>
       <r>   -5.0037    1.0000 </r>
       <r>   -1.0785    0.0000 </r>
       <r>   -0.8333    0.0000 </r>
       <r>   -0.8193    0.0000 </r>
       <r>    0.4042    0.0000 </r>
       <r>    0.4182    0.0000 </r>
       <r>    1.4635    0.0000 </r>
       <r>    1.4648    0.0000 </r>
       <r>    2.2670    0.0000 </r>
       <r>    2.2675    0.0000 </r>
       <r>    2.4999    0.0000 </r>
      </set>
      <set comment="kpoint 21">
       <r>  -21.5622    1.0000 </r>
       <r>  -21.5620    1.0000 </r>
       <r>  -20.8214    1.0000 </r>
       <r>  -19.7262    1.0000 </r>
       <r>  -18.3063    1.0000 </r>
       <r>  -18.3059    1.0000 </r>
       <r>  -17.3084    1.0000 </r>
       <r>  -17.3067    1.0000 </r>
       <r>  -16.9870    1.0000 </r>
       <r>  -15.9391    1.0000 </r>
       <r>  -15.0151    1.0000 </r>
       <r>  -15.0040    1.0000 </r>
       <r>  -13.2883    1.0000 </r>
       <r>  -13.2755    1.0000 </r>
       <r>  -11.3584    1.0000 </r>
       <r>  -10.9954    1.0000 </r>
       <r>  -10.9805    1.0000 </r>
       <r>  -10.5060    1.0000 </r>
       <r>  -10.4939    1.0000 </r>
       <r>   -9.9056    1.0000 </r>
       <r>   -9.6348    1.0000 </r>
       <r>   -9.5360    1.0000 </r>
       <r>   -9.5357    1.0000 </r>
       <r>   -9.3358    1.0000 </r>
       <r>   -8.6672    1.0000 </r>
       <r>   -8.4185    1.0000 </r>
       <r>   -8.1292    1.0000 </r>
       <r>   -8.1206    1.0000 </r>
       <r>   -7.4092    1.0000 </r>
       <r>   -7.0575    1.0000 </r>
       <r>   -7.0481    1.0000 </r>
       <r>   -5.8587    1.0000 </r>
       <r>   -5.8528    1.0000 </r>
       <r>   -5.0636    1.0000 </r>
       <r>   -5.0176    1.0000 </r>
       <r>   -5.0064    1.0000 </r>
       <r>   -1.0893    0.0000 </r>
       <r>   -0.8329    0.0000 </r>
       <r>   -0.8136    0.0000 </r>
       <r>    0.4037    0.0000 </r>
       <r>    0.4175    0.0000 </r>
       <r>    1.4641    0.0000 </r>
       <r>    1.4642    0.0000 </r>
       <r>    2.2673    0.0000 </r>
       <r>    2.2673    0.0000 </r>
       <r>    2.4883    0.0000 </r>
      </set>
      <set comment="kpoint 22">
       <r>  -21.5677    1.0000 </r>
       <r>  -21.5565    1.0000 </r>
       <r>  -20.8213    1.0000 </r>
       <r>  -19.7260    1.0000 </r>
       <r>  -18.3143    1.0000 </r>
       <r>  -18.2980    1.0000 </r>
       <r>  -17.3166    1.0000 </r>
       <r>  -17.2996    1.0000 </r>
       <r>  -16.9833    1.0000 </r>
       <r>  -15.9469    1.0000 </r>
       <r>  -15.0138    1.0000 </r>
       <r>  -15.0008    1.0000 </r>
       <r>  -13.2885    1.0000 </r>
       <r>  -13.2747    1.0000 </r>
       <r>  -11.3502    1.0000 </r>
       <r>  -10.9945    1.0000 </r>
       <r>  -10.9820    1.0000 </r>
       <r>  -10.5082    1.0000 </r>
       <r>  -10.4966    1.0000 </r>
       <r>   -9.9142    1.0000 </r>
       <r>   -9.6257    1.0000 </r>
       <r>   -9.5401    1.0000 </r>
       <r>   -9.5309    1.0000 </r>
       <r>   -9.3295    1.0000 </r>
       <r>   -8.6678    1.0000 </r>
       <r>   -8.4294    1.0000 </r>
       <r>   -8.1442    1.0000 </r>
       <r>   -8.1230    1.0000 </r>
       <r>   -7.4104    1.0000 </r>
       <r>   -7.0574    1.0000 </r>
       <r>   -7.0287    1.0000 </r>
       <r>   -5.8625    1.0000 </r>
       <r>   -5.8486    1.0000 </r>
       <r>   -5.0567    1.0000 </r>
       <r>   -5.0210    1.0000 </r>
       <r>   -5.0069    1.0000 </r>
       <r>   -1.1004    0.0000 </r>
       <r>   -0.8268    0.0000 </r>
       <r>   -0.8132    0.0000 </r>
       <r>    0.4029    0.0000 </r>
       <r>    0.4170    0.0000 </r>
       <r>    1.4635    0.0000 </r>
       <r>    1.4648    0.0000 </r>
       <r>    2.2671    0.0000 </r>
       <r>    2.2676    0.0000 </r>
       <r>    2.4859    0.0000 </r>
      </set>
      <set comment="kpoint 23">
       <r>  -21.6152    1.0000 </r>
       <r>  -21.2494    1.0000 </r>
       <r>  -21.2381    1.0000 </r>
       <r>  -19.0681    1.0000 </r>
       <r>  -19.0523    1.0000 </r>
       <r>  -18.3555    1.0000 </r>
       <r>  -17.0960    1.0000 </r>
       <r>  -17.0840    1.0000 </r>
       <r>  -16.7076    1.0000 </r>
       <r>  -15.6850    1.0000 </r>
       <r>  -15.6176    1.0000 </r>
       <r>  -15.6039    1.0000 </r>
       <r>  -12.9114    1.0000 </r>
       <r>  -12.2749    1.0000 </r>
       <r>  -12.2618    1.0000 </r>
       <r>  -11.3615    1.0000 </r>
       <r>  -10.5554    1.0000 </r>
       <r>  -10.5501    1.0000 </r>
       <r>  -10.5335    1.0000 </r>
       <r>   -9.8289    1.0000 </r>
       <r>   -9.8163    1.0000 </r>
       <r>   -9.5989    1.0000 </r>
       <r>   -9.1655    1.0000 </r>
       <r>   -9.1563    1.0000 </r>
       <r>   -8.8362    1.0000 </r>
       <r>   -8.8115    1.0000 </r>
       <r>   -7.8717    1.0000 </r>
       <r>   -7.6972    1.0000 </r>
       <r>   -7.6702    1.0000 </r>
       <r>   -7.0941    1.0000 </r>
       <r>   -6.6705    1.0000 </r>
       <r>   -6.6565    1.0000 </r>
       <r>   -5.8957    1.0000 </r>
       <r>   -5.0140    1.0000 </r>
       <r>   -5.0031    1.0000 </r>
       <r>   -4.6662    1.0000 </r>
       <r>   -1.2383    0.0000 </r>
       <r>   -1.0262    0.0000 </r>
       <r>   -1.0118    0.0000 </r>
       <r>    0.5338    0.0000 </r>
       <r>    1.3910    0.0000 </r>
       <r>    1.4708    0.0000 </r>
       <r>    1.4873    0.0000 </r>
       <r>    1.8995    0.0000 </r>
       <r>    1.9010    0.0000 </r>
       <r>    2.1941    0.0000 </r>
      </set>
      <set comment="kpoint 24">
       <r>  -21.6154    1.0000 </r>
       <r>  -21.2493    1.0000 </r>
       <r>  -21.2380    1.0000 </r>
       <r>  -19.0678    1.0000 </r>
       <r>  -19.0521    1.0000 </r>
       <r>  -18.3559    1.0000 </r>
       <r>  -17.0940    1.0000 </r>
       <r>  -17.0819    1.0000 </r>
       <r>  -16.7151    1.0000 </r>
       <r>  -15.6689    1.0000 </r>
       <r>  -15.6242    1.0000 </r>
       <r>  -15.6102    1.0000 </r>
       <r>  -12.9247    1.0000 </r>
       <r>  -12.2648    1.0000 </r>
       <r>  -12.2519    1.0000 </r>
       <r>  -11.3466    1.0000 </r>
       <r>  -10.5686    1.0000 </r>
       <r>  -10.5591    1.0000 </r>
       <r>  -10.5455    1.0000 </r>
       <r>   -9.8225    1.0000 </r>
       <r>   -9.8103    1.0000 </r>
       <r>   -9.5984    1.0000 </r>
       <r>   -9.1657    1.0000 </r>
       <r>   -9.1566    1.0000 </r>
       <r>   -8.8326    1.0000 </r>
       <r>   -8.8074    1.0000 </r>
       <r>   -7.8944    1.0000 </r>
       <r>   -7.7006    1.0000 </r>
       <r>   -7.6750    1.0000 </r>
       <r>   -7.0698    1.0000 </r>
       <r>   -6.6728    1.0000 </r>
       <r>   -6.6590    1.0000 </r>
       <r>   -5.8912    1.0000 </r>
       <r>   -5.0073    1.0000 </r>
       <r>   -4.9962    1.0000 </r>
       <r>   -4.6796    1.0000 </r>
       <r>   -1.2174    0.0000 </r>
       <r>   -1.0374    0.0000 </r>
       <r>   -1.0229    0.0000 </r>
       <r>    0.5226    0.0000 </r>
       <r>    1.3912    0.0000 </r>
       <r>    1.4778    0.0000 </r>
       <r>    1.4943    0.0000 </r>
       <r>    1.8995    0.0000 </r>
       <r>    1.9010    0.0000 </r>
       <r>    2.1942    0.0000 </r>
      </set>
      <set comment="kpoint 25">
       <r>  -21.6154    1.0000 </r>
       <r>  -21.2438    1.0000 </r>
       <r>  -21.2435    1.0000 </r>
       <r>  -19.0605    1.0000 </r>
       <r>  -19.0599    1.0000 </r>
       <r>  -18.3555    1.0000 </r>
       <r>  -17.0911    1.0000 </r>
       <r>  -17.0868    1.0000 </r>
       <r>  -16.7114    1.0000 </r>
       <r>  -15.6769    1.0000 </r>
       <r>  -15.6204    1.0000 </r>
       <r>  -15.6077    1.0000 </r>
       <r>  -12.9182    1.0000 </r>
       <r>  -12.2685    1.0000 </r>
       <r>  -12.2581    1.0000 </r>
       <r>  -11.3542    1.0000 </r>
       <r>  -10.5582    1.0000 </r>
       <r>  -10.5544    1.0000 </r>
       <r>  -10.5431    1.0000 </r>
       <r>   -9.8256    1.0000 </r>
       <r>   -9.8136    1.0000 </r>
       <r>   -9.5987    1.0000 </r>
       <r>   -9.1615    1.0000 </r>
       <r>   -9.1605    1.0000 </r>
       <r>   -8.8330    1.0000 </r>
       <r>   -8.8107    1.0000 </r>
       <r>   -7.8834    1.0000 </r>
       <r>   -7.6979    1.0000 </r>
       <r>   -7.6735    1.0000 </r>
       <r>   -7.0818    1.0000 </r>
       <r>   -6.6662    1.0000 </r>
       <r>   -6.6632    1.0000 </r>
       <r>   -5.8934    1.0000 </r>
       <r>   -5.0113    1.0000 </r>
       <r>   -4.9990    1.0000 </r>
       <r>   -4.6729    1.0000 </r>
       <r>   -1.2279    0.0000 </r>
       <r>   -1.0346    0.0000 </r>
       <r>   -1.0145    0.0000 </r>
       <r>    0.5281    0.0000 </r>
       <r>    1.3911    0.0000 </r>
       <r>    1.4779    0.0000 </r>
       <r>    1.4872    0.0000 </r>
       <r>    1.9001    0.0000 </r>
       <r>    1.9004    0.0000 </r>
       <r>    2.1941    0.0000 </r>
      </set>
     </set>
    </set>
   </array>
  </eigenvalues>
  <separator name="orbital magnetization" >
   <v name="MAGDIPOLOUT">      0.00000000      0.00000000      0.00000000</v>
  </separator>
  <dos>
   <i name="efermi">     -2.75527952 </i>
   <total>
    <array>
     <dimension dim="1">gridpoints</dimension>
     <dimension dim="2">spin</dimension>
     <field>energy</field>
     <field>total</field>
     <field>integrated</field>
     <set>
      <set comment="spin 1">
       <r>   -23.5113     0.0000     0.0000 </r>
       <r>   -23.4192     0.0000     0.0000 </r>
       <r>   -23.3272     0.0000     0.0000 </r>
       <r>   -23.2351     0.0000     0.0000 </r>
       <r>   -23.1430     0.0000     0.0000 </r>
       <r>   -23.0510     0.0000     0.0000 </r>
       <r>   -22.9589     0.0000     0.0000 </r>
       <r>   -22.8669     0.0000     0.0000 </r>
       <r>   -22.7748     0.0000     0.0000 </r>
       <r>   -22.6827     0.0000     0.0000 </r>
       <r>   -22.5907     0.0000     0.0000 </r>
       <r>   -22.4986     0.0000     0.0000 </r>
       <r>   -22.4066     0.0000     0.0000 </r>
       <r>   -22.3145     0.0236     0.0022 </r>
       <r>   -22.2224     1.1017     0.1036 </r>
       <r>   -22.1304     2.3658     0.3214 </r>
       <r>   -22.0383     3.5653     0.6496 </r>
       <r>   -21.9463     1.5380     0.7912 </r>
       <r>   -21.8542     4.0184     1.1611 </r>
       <r>   -21.7621     2.8376     1.4224 </r>
       <r>   -21.6701     1.1183     1.5253 </r>
       <r>   -21.5780     3.8488     1.8796 </r>
       <r>   -21.4860     3.9047     2.2391 </r>
       <r>   -21.3939     1.6539     2.3913 </r>
       <r>   -21.3019     1.3371     2.5144 </r>
       <r>   -21.2098     4.2554     2.9062 </r>
       <r>   -21.1177     4.6050     3.3301 </r>
       <r>   -21.0257     1.5155     3.4696 </r>
       <r>   -20.9336     1.1214     3.5729 </r>
       <r>   -20.8416     2.3767     3.7917 </r>
       <r>   -20.7495     5.5250     4.3003 </r>
       <r>   -20.6574     2.1240     4.4958 </r>
       <r>   -20.5654     4.2776     4.8896 </r>
       <r>   -20.4733     0.5341     4.9388 </r>
       <r>   -20.3813     0.5331     4.9879 </r>
       <r>   -20.2892     5.1608     5.4630 </r>
       <r>   -20.1971     4.6707     5.8930 </r>
       <r>   -20.1051     2.8999     6.1599 </r>
       <r>   -20.0130     1.1581     6.2665 </r>
       <r>   -19.9210     3.9936     6.6342 </r>
       <r>   -19.8289     0.2099     6.6535 </r>
       <r>   -19.7368     1.3373     6.7766 </r>
       <r>   -19.6448     7.6125     7.4774 </r>
       <r>   -19.5527     2.6229     7.7189 </r>
       <r>   -19.4607     4.1121     8.0975 </r>
       <r>   -19.3686     0.2795     8.1232 </r>
       <r>   -19.2765     1.8371     8.2923 </r>
       <r>   -19.1845     3.3982     8.6052 </r>
       <r>   -19.0924     1.0586     8.7026 </r>
       <r>   -19.0004     4.7084     9.1361 </r>
       <r>   -18.9083     5.7877     9.6689 </r>
       <r>   -18.8162     2.0454     9.8572 </r>
       <r>   -18.7242     4.0752    10.2323 </r>
       <r>   -18.6321     1.0217    10.3264 </r>
       <r>   -18.5401     0.0467    10.3307 </r>
       <r>   -18.4480     3.0339    10.6100 </r>
       <r>   -18.3559     3.9876    10.9771 </r>
       <r>   -18.2639     5.5893    11.4916 </r>
       <r>   -18.1718     2.5232    11.7239 </r>
       <r>   -18.0798     4.2092    12.1114 </r>
       <r>   -17.9877     1.9680    12.2926 </r>
       <r>   -17.8956     3.7817    12.6407 </r>
       <r>   -17.8036     1.4604    12.7752 </r>
       <r>   -17.7115     0.0064    12.7758 </r>
       <r>   -17.6195     1.7566    12.9375 </r>
       <r>   -17.5274     8.6972    13.7381 </r>
       <r>   -17.4353     4.9754    14.1962 </r>
       <r>   -17.3433     1.3862    14.3238 </r>
       <r>   -17.2512     4.8456    14.7699 </r>
       <r>   -17.1592     2.3431    14.9856 </r>
       <r>   -17.0671     3.8476    15.3398 </r>
       <r>   -16.9751     3.0814    15.6235 </r>
       <r>   -16.8830     0.9866    15.7143 </r>
       <r>   -16.7909     1.5425    15.8563 </r>
       <r>   -16.6989     8.7290    16.6599 </r>
       <r>   -16.6068     5.5003    17.1662 </r>
       <r>   -16.5148     0.1893    17.1837 </r>
       <r>   -16.4227     0.0000    17.1837 </r>
       <r>   -16.3306     0.0000    17.1837 </r>
       <r>   -16.2386     0.0405    17.1874 </r>
       <r>   -16.1465     1.7300    17.3467 </r>
       <r>   -16.0545     1.1521    17.4527 </r>
       <r>   -15.9624     4.7905    17.8937 </r>
       <r>   -15.8703     2.8530    18.1564 </r>
       <r>   -15.7783     0.5622    18.2081 </r>
       <r>   -15.6862     3.2254    18.5051 </r>
       <r>   -15.5942     5.3496    18.9975 </r>
       <r>   -15.5021     1.5734    19.1424 </r>
       <r>   -15.4100     0.0585    19.1478 </r>
       <r>   -15.3180     1.6428    19.2990 </r>
       <r>   -15.2259     9.9542    20.2154 </r>
       <r>   -15.1339     3.4158    20.5298 </r>
       <r>   -15.0418     0.9955    20.6215 </r>
       <r>   -14.9497     4.8984    21.0724 </r>
       <r>   -14.8577     4.4372    21.4809 </r>
       <r>   -14.7656     1.2972    21.6003 </r>
       <r>   -14.6736     2.8285    21.8607 </r>
       <r>   -14.5815     8.5181    22.6449 </r>
       <r>   -14.4894     0.9748    22.7346 </r>
       <r>   -14.3974     0.0950    22.7434 </r>
       <r>   -14.3053     3.7535    23.0889 </r>
       <r>   -14.2133     4.1582    23.4717 </r>
       <r>   -14.1212     4.4766    23.8839 </r>
       <r>   -14.0291     0.8929    23.9661 </r>
       <r>   -13.9371     3.3848    24.2777 </r>
       <r>   -13.8450     1.8554    24.4485 </r>
       <r>   -13.7530     1.2589    24.5644 </r>
       <r>   -13.6609     4.0003    24.9326 </r>
       <r>   -13.5688     2.3099    25.1453 </r>
       <r>   -13.4768     4.3324    25.5441 </r>
       <r>   -13.3847     1.4162    25.6745 </r>
       <r>   -13.2927     2.4402    25.8991 </r>
       <r>   -13.2006     3.6873    26.2386 </r>
       <r>   -13.1085     0.0690    26.2449 </r>
       <r>   -13.0165     0.8007    26.3186 </r>
       <r>   -12.9244     9.4300    27.1868 </r>
       <r>   -12.8324     5.0466    27.6514 </r>
       <r>   -12.7403     3.2819    27.9535 </r>
       <r>   -12.6483     0.3587    27.9865 </r>
       <r>   -12.5562     2.1343    28.1830 </r>
       <r>   -12.4641     0.2534    28.2063 </r>
       <r>   -12.3721     1.5844    28.3522 </r>
       <r>   -12.2800     7.9429    29.0834 </r>
       <r>   -12.1880     8.6962    29.8840 </r>
       <r>   -12.0959     2.9964    30.1598 </r>
       <r>   -12.0038     0.0462    30.1641 </r>
       <r>   -11.9118     1.8989    30.3389 </r>
       <r>   -11.8197     3.3912    30.6511 </r>
       <r>   -11.7277     3.6729    30.9892 </r>
       <r>   -11.6356     6.4735    31.5852 </r>
       <r>   -11.5435     0.5157    31.6326 </r>
       <r>   -11.4515     0.2295    31.6538 </r>
       <r>   -11.3594     6.4796    32.2503 </r>
       <r>   -11.2674     6.0493    32.8072 </r>
       <r>   -11.1753     3.3749    33.1179 </r>
       <r>   -11.0832     5.5659    33.6303 </r>
       <r>   -10.9912     4.6999    34.0629 </r>
       <r>   -10.8991     2.8273    34.3232 </r>
       <r>   -10.8071     0.0361    34.3265 </r>
       <r>   -10.7150     0.0033    34.3268 </r>
       <r>   -10.6229     1.4945    34.4644 </r>
       <r>   -10.5309    11.0111    35.4781 </r>
       <r>   -10.4388    10.6791    36.4612 </r>
       <r>   -10.3468     2.8235    36.7211 </r>
       <r>   -10.2547     5.9350    37.2675 </r>
       <r>   -10.1626     2.0532    37.4565 </r>
       <r>   -10.0706     4.2795    37.8505 </r>
       <r>    -9.9785     4.9737    38.3084 </r>
       <r>    -9.8865    10.8220    39.3046 </r>
       <r>    -9.7944    10.0120    40.2263 </r>
       <r>    -9.7023     6.2133    40.7983 </r>
       <r>    -9.6103     8.8078    41.6092 </r>
       <r>    -9.5182     8.8240    42.4215 </r>
       <r>    -9.4262     5.5169    42.9294 </r>
       <r>    -9.3341     3.7804    43.2774 </r>
       <r>    -9.2420    10.3919    44.2341 </r>
       <r>    -9.1500    11.9550    45.3347 </r>
       <r>    -9.0579    14.9043    46.7067 </r>
       <r>    -8.9659     6.7950    47.3323 </r>
       <r>    -8.8738     3.0236    47.6106 </r>
       <r>    -8.7817    12.4942    48.7609 </r>
       <r>    -8.6897     6.8274    49.3894 </r>
       <r>    -8.5976     7.4240    50.0728 </r>
       <r>    -8.5056     7.0743    50.7241 </r>
       <r>    -8.4135     8.0687    51.4669 </r>
       <r>    -8.3215     3.3327    51.7737 </r>
       <r>    -8.2294     4.0374    52.1454 </r>
       <r>    -8.1373     5.5345    52.6549 </r>
       <r>    -8.0453    13.8145    53.9266 </r>
       <r>    -7.9532     5.2397    54.4090 </r>
       <r>    -7.8612     4.9760    54.8671 </r>
       <r>    -7.7691     1.1714    54.9749 </r>
       <r>    -7.6770     8.4252    55.7506 </r>
       <r>    -7.5850     7.0114    56.3960 </r>
       <r>    -7.4929     5.1499    56.8701 </r>
       <r>    -7.4009     2.9281    57.1397 </r>
       <r>    -7.3088     7.3578    57.8170 </r>
       <r>    -7.2167     2.2661    58.0257 </r>
       <r>    -7.1247    10.0387    58.9498 </r>
       <r>    -7.0326     7.8154    59.6693 </r>
       <r>    -6.9406     3.4541    59.9873 </r>
       <r>    -6.8485     3.5854    60.3173 </r>
       <r>    -6.7564     0.1429    60.3305 </r>
       <r>    -6.6644     4.3165    60.7279 </r>
       <r>    -6.5723    10.5603    61.7000 </r>
       <r>    -6.4803     8.8266    62.5126 </r>
       <r>    -6.3882     4.1229    62.8922 </r>
       <r>    -6.2961     4.0300    63.2632 </r>
       <r>    -6.2041     1.7746    63.4265 </r>
       <r>    -6.1120     4.9649    63.8836 </r>
       <r>    -6.0200     4.8076    64.3262 </r>
       <r>    -5.9279     2.8608    64.5895 </r>
       <r>    -5.8358     7.9392    65.3204 </r>
       <r>    -5.7438     7.1469    65.9784 </r>
       <r>    -5.6517     3.4452    66.2955 </r>
       <r>    -5.5597     3.7857    66.6440 </r>
       <r>    -5.4676     1.4811    66.7804 </r>
       <r>    -5.3755     3.1949    67.0745 </r>
       <r>    -5.2835     2.0842    67.2664 </r>
       <r>    -5.1914     1.5245    67.4067 </r>
       <r>    -5.0994     3.2403    67.7050 </r>
       <r>    -5.0073    15.6335    69.1442 </r>
       <r>    -4.9152     6.1399    69.7095 </r>
       <r>    -4.8232     0.0523    69.7143 </r>
       <r>    -4.7311     0.1378    69.7270 </r>
       <r>    -4.6391     2.0644    69.9170 </r>
       <r>    -4.5470     0.4611    69.9595 </r>
       <r>    -4.4549     1.4200    70.0902 </r>
       <r>    -4.3629     3.9624    70.4550 </r>
       <r>    -4.2708     5.0585    70.9207 </r>
       <r>    -4.1788     2.8205    71.1803 </r>
       <r>    -4.0867     0.0365    71.1837 </r>
       <r>    -3.9947     0.0102    71.1846 </r>
       <r>    -3.9026     1.2241    71.2973 </r>
       <r>    -3.8105     1.4086    71.4270 </r>
       <r>    -3.7185     0.0173    71.4286 </r>
       <r>    -3.6264     0.0139    71.4299 </r>
       <r>    -3.5344     2.1933    71.6318 </r>
       <r>    -3.4423     3.0649    71.9139 </r>
       <r>    -3.3502     0.0483    71.9184 </r>
       <r>    -3.2582     0.0000    71.9184 </r>
       <r>    -3.1661     0.0000    71.9184 </r>
       <r>    -3.0741     0.0000    71.9184 </r>
       <r>    -2.9820     0.0000    71.9184 </r>
       <r>    -2.8899     0.0002    71.9184 </r>
       <r>    -2.7979     0.2203    71.9387 </r>
       <r>    -2.7058     1.3931    72.0669 </r>
       <r>    -2.6138     0.1598    72.0816 </r>
       <r>    -2.5217     0.0001    72.0816 </r>
       <r>    -2.4296     0.0000    72.0816 </r>
       <r>    -2.3376     0.0000    72.0816 </r>
       <r>    -2.2455     0.0000    72.0816 </r>
       <r>    -2.1535     0.0001    72.0816 </r>
       <r>    -2.0614     0.3002    72.1093 </r>
       <r>    -1.9693     4.1561    72.4919 </r>
       <r>    -1.8773     0.8631    72.5713 </r>
       <r>    -1.7852     0.0521    72.5761 </r>
       <r>    -1.6932     1.7693    72.7390 </r>
       <r>    -1.6011     0.8366    72.8160 </r>
       <r>    -1.5090     0.0032    72.8163 </r>
       <r>    -1.4170     0.0028    72.8166 </r>
       <r>    -1.3249     1.9299    72.9942 </r>
       <r>    -1.2329    11.4259    74.0461 </r>
       <r>    -1.1408     2.7950    74.3034 </r>
       <r>    -1.0487     3.5115    74.6267 </r>
       <r>    -0.9567     5.8254    75.1630 </r>
       <r>    -0.8646     1.7823    75.3270 </r>
       <r>    -0.7726     4.2570    75.7189 </r>
       <r>    -0.6805     3.3612    76.0284 </r>
       <r>    -0.5884     4.7785    76.4683 </r>
       <r>    -0.4964     2.9800    76.7426 </r>
       <r>    -0.4043     3.7572    77.0885 </r>
       <r>    -0.3123     3.3536    77.3972 </r>
       <r>    -0.2202     5.1931    77.8753 </r>
       <r>    -0.1281     0.9081    77.9589 </r>
       <r>    -0.0361     0.0034    77.9592 </r>
       <r>     0.0560     0.5372    78.0087 </r>
       <r>     0.1480     4.2500    78.3999 </r>
       <r>     0.2401     1.4999    78.5380 </r>
       <r>     0.3321     4.1611    78.9211 </r>
       <r>     0.4242     3.6417    79.2563 </r>
       <r>     0.5163     3.0920    79.5410 </r>
       <r>     0.6083     3.6474    79.8768 </r>
       <r>     0.7004     1.3270    79.9989 </r>
       <r>     0.7924     5.8528    80.5377 </r>
       <r>     0.8845     5.8965    81.0806 </r>
       <r>     0.9766     1.4985    81.2185 </r>
       <r>     1.0686     4.2746    81.6120 </r>
       <r>     1.1607     1.8174    81.7793 </r>
       <r>     1.2527     5.6858    82.3028 </r>
       <r>     1.3448     2.0928    82.4954 </r>
       <r>     1.4369     6.9072    83.1313 </r>
       <r>     1.5289    14.0715    84.4267 </r>
       <r>     1.6210     4.4729    84.8385 </r>
       <r>     1.7130     4.6445    85.2661 </r>
       <r>     1.8051     3.3639    85.5757 </r>
       <r>     1.8972     8.7864    86.3846 </r>
       <r>     1.9892     8.9058    87.2045 </r>
       <r>     2.0813     9.2177    88.0531 </r>
       <r>     2.1733     6.8873    88.6871 </r>
       <r>     2.2654     6.9386    89.3259 </r>
       <r>     2.3575     7.3214    89.9999 </r>
       <r>     2.4495     5.7700    90.5311 </r>
       <r>     2.5416     4.9545    90.9872 </r>
       <r>     2.6336     1.8050    91.1533 </r>
       <r>     2.7257     1.9618    91.3339 </r>
       <r>     2.8178     4.5972    91.7572 </r>
       <r>     2.9098     2.5081    91.9881 </r>
       <r>     3.0019     0.1297    92.0000 </r>
       <r>     3.0939     0.0000    92.0000 </r>
       <r>     3.1860     0.0000    92.0000 </r>
       <r>     3.2781     0.0000    92.0000 </r>
       <r>     3.3701     0.0000    92.0000 </r>
       <r>     3.4622     0.0000    92.0000 </r>
       <r>     3.5542     0.0000    92.0000 </r>
       <r>     3.6463     0.0000    92.0000 </r>
       <r>     3.7384     0.0000    92.0000 </r>
       <r>     3.8304     0.0000    92.0000 </r>
       <r>     3.9225     0.0000    92.0000 </r>
       <r>     4.0145     0.0000    92.0000 </r>
       <r>     4.1066     0.0000    92.0000 </r>
      </set>
     </set>
    </array>
   </total>
  </dos>
 </calculation>
 <structure name="finalpos" >
  <crystal>
   <varray name="basis" >
    <v>       7.40170591       0.00000000       0.00000000 </v>
    <v>      -3.70085295       6.41006527       0.00000000 </v>
    <v>       0.00000000       0.00000000      20.00000000 </v>
   </varray>
   <i name="volume">    948.90835877 </i>
   <varray name="rec_basis" >
    <v>       0.13510399       0.07800233       0.00000000 </v>
    <v>       0.00000000       0.15600465       0.00000000 </v>
    <v>       0.00000000       0.00000000       0.05000000 </v>
   </varray>
  </crystal>
  <varray name="positions" >
   <v>       0.99864896       0.00000000       0.50000000 </v>
   <v>       0.33333333       0.00000000       0.50000000 </v>
   <v>       0.66666667       0.00000000       0.50000000 </v>
   <v>       0.00000000       0.33333333       0.50000000 </v>
   <v>       0.33333333       0.33333333       0.50000000 </v>
   <v>       0.66666667       0.33333333       0.50000000 </v>
   <v>       0.00000000       0.66666667       0.50000000 </v>
   <v>       0.33333333       0.66666667       0.50000000 </v>
   <v>       0.66666667       0.66666667       0.50000000 </v>
   <v>       0.22222222       0.11111111       0.49950000 </v>
   <v>       0.55555556       0.11111111       0.50000000 </v>
   <v>       0.88888889       0.11111111       0.50000000 </v>
   <v>       0.22222222       0.44444444       0.50000000 </v>
   <v>       0.55555556       0.44444444       0.50000000 </v>
   <v>       0.88888889       0.44444444       0.50000000 </v>
   <v>       0.22222222       0.77777778       0.50000000 </v>
   <v>       0.55555556       0.77777778       0.50000000 </v>
   <v>       0.88888889       0.77777778       0.50000000 </v>
  </varray>
 </structure>
</modeling>
