<?xml version="1.0" encoding="ISO-8859-1"?>
<modeling>
 <generator>
  <i name="program" type="string">vasp </i>
  <i name="version" type="string">6.4.1  </i>
  <i name="subversion" type="string">05Apr23 (build Feb 12 2025 00:37:39) complex                          parallel </i>
  <i name="platform" type="string">LinuxIFC </i>
  <i name="date" type="string">2025 02 14 </i>
  <i name="time" type="string">06:08:12 </i>
 </generator>
 <incar>
  <i type="string" name="SYSTEM">SCF</i>
  <i type="int" name="ISTART">     0</i>
  <i type="int" name="ICHARG">     2</i>
  <i type="int" name="NELM">    60</i>
  <i type="int" name="NELMIN">     6</i>
  <i name="EDIFF">      0.00000100</i>
  <i name="EDIFFG">     -0.00000100</i>
  <i name="ENCUT">    600.00000000</i>
  <i type="string" name="LREAL">Auto</i>
  <i type="int" name="ISMEAR">     0</i>
  <i name="SIGMA">      0.05000000</i>
  <i type="logical" name="LWAVE"> F  </i>
  <i type="logical" name="LCHARG"> F  </i>
 </incar>
 <primitive_cell>
  <structure name="primitive_cell" >
   <crystal>
    <varray name="basis" >
     <v>       7.40170591       0.00000000       0.00000000 </v>
     <v>      -3.70085295       6.41006527       0.00000000 </v>
     <v>       0.00000000       0.00000000      20.00000000 </v>
    </varray>
    <i name="volume">    948.90835877 </i>
    <varray name="rec_basis" >
     <v>       0.13510399       0.07800233       0.00000000 </v>
     <v>       0.00000000       0.15600465       0.00000000 </v>
     <v>       0.00000000       0.00000000       0.05000000 </v>
    </varray>
   </crystal>
   <varray name="positions" >
    <v>       0.99921998       0.99843995       0.50000000 </v>
    <v>       0.33198229       0.00000000       0.50000000 </v>
    <v>       0.66666667       0.00000000       0.50000000 </v>
    <v>       1.00000000       0.33333333       0.50000000 </v>
    <v>       0.33333333       0.33333333       0.50000000 </v>
    <v>       0.66666667       0.33333333       0.50000000 </v>
    <v>       1.00000000       0.66666667       0.50000000 </v>
    <v>       0.33333333       0.66666667       0.50000000 </v>
    <v>       0.66666667       0.66666667       0.50000000 </v>
    <v>       0.22222222       0.11111111       0.50000000 </v>
    <v>       0.55555556       0.11111111       0.50000000 </v>
    <v>       0.88888889       0.11111111       0.50000000 </v>
    <v>       0.22222222       0.44444444       0.50000000 </v>
    <v>       0.55555556       0.44444444       0.50000000 </v>
    <v>       0.88888889       0.44444444       0.50000000 </v>
    <v>       0.22222222       0.77777778       0.50000000 </v>
    <v>       0.55555556       0.77777778       0.50000000 </v>
    <v>       0.88888889       0.77777778       0.50000000 </v>
   </varray>
  </structure>
  <varray name="primitive_index" >
   <v type="int" >        1 </v>
   <v type="int" >        2 </v>
   <v type="int" >        3 </v>
   <v type="int" >        4 </v>
   <v type="int" >        5 </v>
   <v type="int" >        6 </v>
   <v type="int" >        7 </v>
   <v type="int" >        8 </v>
   <v type="int" >        9 </v>
   <v type="int" >       10 </v>
   <v type="int" >       11 </v>
   <v type="int" >       12 </v>
   <v type="int" >       13 </v>
   <v type="int" >       14 </v>
   <v type="int" >       15 </v>
   <v type="int" >       16 </v>
   <v type="int" >       17 </v>
   <v type="int" >       18 </v>
  </varray>
 </primitive_cell>
 <kpoints>
  <generation param="Gamma">
   <v type="int" name="divisions">       7        7        1 </v>
   <v name="usershift">      0.00000000       0.00000000       0.00000000 </v>
   <v name="genvec1">      0.14285714       0.00000000       0.00000000 </v>
   <v name="genvec2">      0.00000000       0.14285714       0.00000000 </v>
   <v name="genvec3">      0.00000000       0.00000000       1.00000000 </v>
   <v name="shift">      0.00000000       0.00000000       0.00000000 </v>
  </generation>
  <varray name="kpointlist" >
   <v>       0.00000000       0.00000000       0.00000000 </v>
   <v>       0.14285714       0.00000000       0.00000000 </v>
   <v>       0.00000000       0.14285714       0.00000000 </v>
   <v>      -0.14285714       0.14285714       0.00000000 </v>
   <v>       0.28571429       0.00000000       0.00000000 </v>
   <v>       0.00000000       0.28571429       0.00000000 </v>
   <v>      -0.28571429       0.28571429       0.00000000 </v>
   <v>       0.42857143       0.00000000       0.00000000 </v>
   <v>       0.00000000       0.42857143       0.00000000 </v>
   <v>      -0.42857143       0.42857143       0.00000000 </v>
   <v>       0.14285714       0.14285714       0.00000000 </v>
   <v>      -0.14285714       0.28571429       0.00000000 </v>
   <v>      -0.28571429       0.14285714       0.00000000 </v>
   <v>       0.28571429       0.14285714       0.00000000 </v>
   <v>      -0.14285714       0.42857143       0.00000000 </v>
   <v>      -0.42857143       0.28571429       0.00000000 </v>
   <v>      -0.28571429       0.42857143       0.00000000 </v>
   <v>       0.14285714       0.28571429       0.00000000 </v>
   <v>       0.42857143      -0.14285714       0.00000000 </v>
   <v>       0.42857143       0.14285714       0.00000000 </v>
   <v>      -0.14285714      -0.42857143       0.00000000 </v>
   <v>       0.42857143       0.42857143       0.00000000 </v>
   <v>       0.28571429       0.28571429       0.00000000 </v>
   <v>      -0.28571429      -0.42857143       0.00000000 </v>
   <v>       0.42857143       0.28571429       0.00000000 </v>
  </varray>
  <varray name="weights" >
   <v>       0.02040816 </v>
   <v>       0.04081633 </v>
   <v>       0.04081633 </v>
   <v>       0.04081633 </v>
   <v>       0.04081633 </v>
   <v>       0.04081633 </v>
   <v>       0.04081633 </v>
   <v>       0.04081633 </v>
   <v>       0.04081633 </v>
   <v>       0.04081633 </v>
   <v>       0.04081633 </v>
   <v>       0.04081633 </v>
   <v>       0.04081633 </v>
   <v>       0.04081633 </v>
   <v>       0.04081633 </v>
   <v>       0.04081633 </v>
   <v>       0.04081633 </v>
   <v>       0.04081633 </v>
   <v>       0.04081633 </v>
   <v>       0.04081633 </v>
   <v>       0.04081633 </v>
   <v>       0.04081633 </v>
   <v>       0.04081633 </v>
   <v>       0.04081633 </v>
   <v>       0.04081633 </v>
  </varray>
 </kpoints>
 <parameters>
  <separator name="general" >
   <i type="string" name="SYSTEM">SCF</i>
   <i type="logical" name="LCOMPAT"> F  </i>
  </separator>
  <separator name="electronic" >
   <i type="string" name="PREC">normal</i>
   <i name="ENMAX">    600.00000000</i>
   <i name="ENAUG">    644.87300000</i>
   <i name="EDIFF">      0.00000100</i>
   <i type="int" name="IALGO">    38</i>
   <i type="int" name="IWAVPR">    10</i>
   <i type="int" name="NBANDS">    46</i>
   <i type="int" name="NBANDSLOW">    -1</i>
   <i type="int" name="NBANDSHIGH">    -1</i>
   <i name="NELECT">     72.00000000</i>
   <i type="int" name="TURBO">     0</i>
   <i type="int" name="IRESTART">     0</i>
   <i type="int" name="NREBOOT">     0</i>
   <i type="int" name="NMIN">     0</i>
   <i name="EREF">      0.00000000</i>
   <separator name="electronic smearing" >
    <i type="int" name="ISMEAR">     0</i>
    <i name="SIGMA">      0.05000000</i>
    <i name="KSPACING">      0.50000000</i>
    <i type="logical" name="KGAMMA"> T  </i>
    <i type="logical" name="KBLOWUP"> T  </i>
   </separator>
   <separator name="electronic projectors" >
    <i type="logical" name="LREAL"> T  </i>
    <v name="ROPT">     -0.00050000</v>
    <i type="int" name="LMAXPAW">  -100</i>
    <i type="int" name="LMAXMIX">     2</i>
    <i type="logical" name="NLSPLINE"> F  </i>
   </separator>
   <separator name="electronic startup" >
    <i type="int" name="ISTART">     0</i>
    <i type="int" name="ICHARG">     2</i>
    <i type="int" name="INIWAV">     1</i>
   </separator>
   <separator name="electronic spin" >
    <i type="int" name="ISPIN">     1</i>
    <i type="logical" name="LNONCOLLINEAR"> F  </i>
    <v name="MAGMOM">      1.00000000      1.00000000      1.00000000      1.00000000      1.00000000      1.00000000      1.00000000      1.00000000      1.00000000      1.00000000      1.00000000      1.00000000      1.00000000      1.00000000      1.00000000      1.00000000      1.00000000      1.00000000</v>
    <i name="NUPDOWN">     -1.00000000</i>
    <i type="logical" name="LSORBIT"> F  </i>
    <v name="SAXIS">      0.00000000      0.00000000      1.00000000</v>
    <i type="logical" name="LSPIRAL"> F  </i>
    <v name="QSPIRAL">      0.00000000      0.00000000      0.00000000</v>
    <i type="logical" name="LZEROZ"> F  </i>
   </separator>
   <separator name="electronic exchange-correlation" >
    <i type="logical" name="LASPH"> F  </i>
    <i type="logical" name="LMETAGGA"> F  </i>
   </separator>
   <separator name="electronic convergence" >
    <i type="int" name="NELM">    60</i>
    <i type="int" name="NELMDL">    -5</i>
    <i type="int" name="NELMIN">     6</i>
    <i name="ENINI">    600.00000000</i>
    <separator name="electronic convergence detail" >
     <i type="logical" name="LDIAG"> T  </i>
     <i type="logical" name="LSUBROT"> F  </i>
     <i name="WEIMIN">      0.00000000</i>
     <i name="EBREAK">      0.00000000</i>
     <i name="DEPER">      0.30000000</i>
     <i type="int" name="NRMM">     4</i>
     <i name="TIME">      0.40000000</i>
    </separator>
   </separator>
   <separator name="electronic mixer" >
    <i name="AMIX">      0.40000000</i>
    <i name="BMIX">      1.00000000</i>
    <i name="AMIN">      0.10000000</i>
    <i name="AMIX_MAG">      1.60000000</i>
    <i name="BMIX_MAG">      1.00000000</i>
    <separator name="electronic mixer details" >
     <i type="int" name="IMIX">     4</i>
     <i type="logical" name="MIXFIRST"> F  </i>
     <i type="int" name="MAXMIX">   -45</i>
     <i name="WC">    100.00000000</i>
     <i type="int" name="INIMIX">     1</i>
     <i type="int" name="MIXPRE">     1</i>
     <i type="int" name="MREMOVE">     5</i>
    </separator>
   </separator>
   <separator name="electronic dipolcorrection" >
    <i type="logical" name="LDIPOL"> F  </i>
    <i type="logical" name="LMONO"> F  </i>
    <i type="int" name="IDIPOL">     0</i>
    <i name="EPSILON">      1.00000000</i>
    <v name="DIPOL">   -100.00000000   -100.00000000   -100.00000000</v>
    <i name="EFIELD">      0.00000000</i>
   </separator>
  </separator>
  <separator name="grids" >
   <i type="int" name="NGX">    48</i>
   <i type="int" name="NGY">    48</i>
   <i type="int" name="NGZ">   120</i>
   <i type="int" name="NGXF">    96</i>
   <i type="int" name="NGYF">    96</i>
   <i type="int" name="NGZF">   240</i>
   <i type="logical" name="ADDGRID"> F  </i>
  </separator>
  <separator name="ionic" >
   <i type="int" name="NSW">     0</i>
   <i type="int" name="IBRION">    -1</i>
   <i type="int" name="MDALGO">     0</i>
   <i type="int" name="ISIF">     2</i>
   <i name="PSTRESS">      0.00000000</i>
   <i name="EDIFFG">     -0.00000100</i>
   <i type="int" name="NFREE">     0</i>
   <i name="POTIM">      0.50000000</i>
   <i name="SMASS">     -3.00000000</i>
   <i name="SCALEE">      1.00000000</i>
  </separator>
  <separator name="ionic md" >
   <i name="TEBEG">      0.00010000</i>
   <i name="TEEND">      0.00010000</i>
   <i type="int" name="NBLOCK">     1</i>
   <i type="int" name="KBLOCK">     1</i>
   <i type="int" name="NPACO">   256</i>
   <i name="APACO">     10.00000000</i>
  </separator>
  <separator name="symmetry" >
   <i type="int" name="ISYM">     2</i>
   <i name="SYMPREC">      0.00001000</i>
  </separator>
  <separator name="dos" >
   <i type="int" name="LORBIT">     0</i>
   <v name="RWIGS">     -1.00000000</v>
   <i type="int" name="NEDOS">   301</i>
   <i name="EMIN">     10.00000000</i>
   <i name="EMAX">    -10.00000000</i>
   <i name="EFERMI">      0.00000000</i>
  </separator>
  <separator name="writing" >
   <i type="int" name="NWRITE">     2</i>
   <i type="logical" name="LWAVE"> F  </i>
   <i type="logical" name="LDOWNSAMPLE"> F  </i>
   <i type="logical" name="LCHARG"> F  </i>
   <i type="logical" name="LPARD"> F  </i>
   <i type="logical" name="LVTOT"> F  </i>
   <i type="logical" name="LVHAR"> F  </i>
   <i type="logical" name="LELF"> F  </i>
   <i type="logical" name="LOPTICS"> F  </i>
   <v name="STM">      0.00000000      0.00000000      0.00000000      0.00000000      0.00000000      0.00000000      0.00000000</v>
  </separator>
  <separator name="performance" >
   <i type="int" name="NPAR">     2</i>
   <i type="int" name="NSIM">     4</i>
   <i type="int" name="NBLK">    -1</i>
   <i type="logical" name="LPLANE"> T  </i>
   <i type="logical" name="LSCALAPACK"> T  </i>
   <i type="logical" name="LSCAAWARE"> F  </i>
   <i type="logical" name="LSCALU"> F  </i>
   <i type="logical" name="LASYNC"> F  </i>
   <i type="logical" name="LORBITALREAL"> F  </i>
  </separator>
  <separator name="miscellaneous" >
   <i type="int" name="IDIOT">     3</i>
   <i type="int" name="PHON_NSTRUCT">    -1</i>
   <i type="logical" name="LMUSIC"> F  </i>
   <v name="POMASS">     12.01100000</v>
   <v name="DARWINR">      0.00000000</v>
   <v name="DARWINV">      1.00000000</v>
   <i type="logical" name="LCORR"> T  </i>
  </separator>
  <i type="logical" name="GGA_COMPAT"> T  </i>
  <i type="logical" name="LBERRY"> F  </i>
  <i type="int" name="ICORELEVEL">     0</i>
  <i type="logical" name="LDAU"> F  </i>
  <i type="int" name="I_CONSTRAINED_M">     0</i>
  <separator name="electronic exchange-correlation" >
   <i type="string" name="GGA">--</i>
   <i type="int" name="VOSKOWN">     0</i>
   <i type="logical" name="LHFCALC"> F  </i>
   <i type="string" name="PRECFOCK"></i>
   <i type="logical" name="LSYMGRAD"> F  </i>
   <i type="logical" name="LHFONE"> F  </i>
   <i type="logical" name="LRHFCALC"> F  </i>
   <i type="logical" name="LTHOMAS"> F  </i>
   <i type="logical" name="LMODELHF"> F  </i>
   <i type="logical" name="LFOCKACE"> F  </i>
   <i name="ENCUT4O">     -1.00000000</i>
   <i type="int" name="EXXOEP">     0</i>
   <i type="int" name="FOURORBIT">     0</i>
   <i name="AEXX">      0.00000000</i>
   <i name="HFALPHA">      0.00000000</i>
   <i name="MCALPHA">      0.00000000</i>
   <i name="ALDAX">      1.00000000</i>
   <i name="AGGAX">      1.00000000</i>
   <i name="ALDAC">      1.00000000</i>
   <i name="AGGAC">      1.00000000</i>
   <i type="int" name="NKREDX">     1</i>
   <i type="int" name="NKREDY">     1</i>
   <i type="int" name="NKREDZ">     1</i>
   <i type="logical" name="SHIFTRED"> F  </i>
   <i type="logical" name="ODDONLY"> F  </i>
   <i type="logical" name="EVENONLY"> F  </i>
   <i type="int" name="LMAXFOCK">     0</i>
   <i type="int" name="NMAXFOCKAE">     0</i>
   <i type="logical" name="LFOCKAEDFT"> F  </i>
   <i name="HFSCREEN">      0.00000000</i>
   <i name="HFSCREENC">      0.00000000</i>
   <i type="int" name="NBANDSGWLOW">     0</i>
  </separator>
  <separator name="vdW DFT" >
   <i type="logical" name="LUSE_VDW"> F  </i>
   <i type="int" name="IVDW_NL">     1</i>
   <i type="logical" name="LSPIN_VDW"> F  </i>
   <i name="Zab_VDW">     -0.84910000</i>
   <i name="PARAM1">      0.12340000</i>
   <i name="PARAM2">      1.00000000</i>
   <i name="PARAM3">      0.00000000</i>
  </separator>
  <separator name="model GW" >
   <i type="int" name="MODEL_GW">     0</i>
   <i name="MODEL_EPS0">     31.63027863</i>
   <i name="MODEL_ALPHA">      1.00000000</i>
  </separator>
  <separator name="linear response parameters" >
   <i type="logical" name="LEPSILON"> F  </i>
   <i type="logical" name="LRPA"> F  </i>
   <i type="logical" name="LNABLA"> F  </i>
   <i type="logical" name="LVEL"> F  </i>
   <i name="CSHIFT">      0.10000000</i>
   <i name="OMEGAMAX">     -1.00000000</i>
   <i name="DEG_THRESHOLD">      0.00200000</i>
   <i name="RTIME">     -0.10000000</i>
   <i name="WPLASMAI">      0.00000000</i>
   <v name="DFIELD">      0.00000000      0.00000000      0.00000000</v>
   <v name="WPLASMA">      0.00000000      0.00000000      0.00000000      0.00000000      0.00000000      0.00000000      0.00000000      0.00000000      0.00000000</v>
  </separator>
  <separator name="orbital magnetization" >
   <i type="logical" name="NUCIND"> F  </i>
   <v name="MAGPOS">      0.00000000      0.00000000      0.00000000</v>
   <i type="logical" name="LNICSALL"> T  </i>
   <i type="logical" name="ORBITALMAG"> F  </i>
   <i type="logical" name="LMAGBLOCH"> F  </i>
   <i type="logical" name="LCHIMAG"> F  </i>
   <i type="logical" name="LGAUGE"> T  </i>
   <i type="int" name="MAGATOM">     0</i>
   <v name="MAGDIPOL">      0.00000000      0.00000000      0.00000000</v>
   <v name="AVECCONST">      0.00000000      0.00000000      0.00000000</v>
  </separator>
  <separator name="response functions" >
   <i type="logical" name="LALL_IN_ONE"> F  </i>
   <i type="int" name="IALL_IN_ONE">    -1</i>
   <i type="int" name="NBANDS_WAVE">    -1</i>
   <i type="logical" name="LFINITE_TEMPERATURE"> F  </i>
   <i type="logical" name="LADDER"> F  </i>
   <i type="logical" name="LRPAFORCE"> F  </i>
   <i type="logical" name="LFXC"> F  </i>
   <i type="logical" name="LHARTREE"> T  </i>
   <i type="int" name="IBSE">     0</i>
   <v type="int" name="KPOINT">    -1     0     0     0</v>
   <i type="logical" name="LTCTC"> F  </i>
   <i type="logical" name="LTCTE"> F  </i>
   <i type="logical" name="LTETE"> F  </i>
   <i type="logical" name="LTRIPLET"> F  </i>
   <i type="logical" name="LFXCEPS"> F  </i>
   <i type="logical" name="LFXHEG"> F  </i>
   <i type="int" name="NATURALO">     2</i>
   <i type="logical" name="LHOLEGF"> F  </i>
   <i type="logical" name="L2ORDER"> F  </i>
   <i type="logical" name="LDMP1"> F  </i>
   <i type="logical" name="LMP2LT"> F  </i>
   <i type="logical" name="LSMP2LT"> F  </i>
   <i type="logical" name="LGWLF"> F  </i>
   <i name="ENCUTGW">     -1.60000002</i>
   <i name="ENCUTGWSOFT">     -1.60000002</i>
   <i name="ENCUTLF">     -1.00000000</i>
   <i type="logical" name="LESF_SPLINES"> F  </i>
   <i type="int" name="LMAXMP2">    -1</i>
   <i name="SCISSOR">      0.00000000</i>
   <i type="int" name="NOMEGA">     0</i>
   <i type="int" name="NOMEGAR">     0</i>
   <i type="int" name="NBANDSGW">    -1</i>
   <i type="int" name="NBANDSO">    -1</i>
   <i type="int" name="NBANDSV">    -1</i>
   <i type="int" name="NELMGW">     1</i>
   <i type="int" name="NELMHF">     1</i>
   <i type="int" name="DIM">     3</i>
   <i type="int" name="IESPILON">     4</i>
   <i type="int" name="ANTIRES">     0</i>
   <i name="OMEGAMAX">    -30.00000000</i>
   <i name="OMEGAMIN">    -30.00000000</i>
   <i name="OMEGATL">   -200.00000000</i>
   <i type="int" name="OMEGAGRID">     0</i>
   <i name="CSHIFT">     -0.10000000</i>
   <i type="logical" name="LSELFENERGY"> F  </i>
   <i type="logical" name="LSPECTRAL"> F  </i>
   <i type="logical" name="LSPECTRALGW"> F  </i>
   <i type="logical" name="LSINGLES"> F  </i>
   <i type="logical" name="LFERMIGW"> F  </i>
   <i type="logical" name="ODDONLYGW"> F  </i>
   <i type="logical" name="EVENONLYGW"> F  </i>
   <i type="int" name="NKREDLFX">     1</i>
   <i type="int" name="NKREDLFY">     1</i>
   <i type="int" name="NKREDLFZ">     1</i>
   <i type="int" name="MAXMEM">  2800</i>
   <i type="int" name="TELESCOPE">     0</i>
   <i type="int" name="NTAUPAR">    -1</i>
   <i type="int" name="NOMEGAPAR">    -1</i>
   <i name="DAMP_NEWTON">      0.80000001</i>
   <i name="LAMBDA">      1.00000000</i>
  </separator>
  <separator name="External order field" >
   <i name="OFIELD_KAPPA">      0.00000000</i>
   <v name="OFIELD_K">      0.00000000      0.00000000      0.00000000</v>
   <i name="OFIELD_Q6_NEAR">      0.00000000</i>
   <i name="OFIELD_Q6_FAR">      0.00000000</i>
   <i name="OFIELD_A">      0.00000000</i>
  </separator>
  <separator name="optional k-points parameters" >
   <i type="int" name="KPOINTS_OPT_MODE">     1</i>
   <i type="logical" name="LKPOINTS_OPT"> F  </i>
  </separator>
 </parameters>
 <atominfo>
  <atoms>      18 </atoms>
  <types>       1 </types>
  <array name="atoms" >
   <dimension dim="1">ion</dimension>
   <field type="string">element</field>
   <field type="int">atomtype</field>
   <set>
    <rc><c>C </c><c>   1</c></rc>
    <rc><c>C </c><c>   1</c></rc>
    <rc><c>C </c><c>   1</c></rc>
    <rc><c>C </c><c>   1</c></rc>
    <rc><c>C </c><c>   1</c></rc>
    <rc><c>C </c><c>   1</c></rc>
    <rc><c>C </c><c>   1</c></rc>
    <rc><c>C </c><c>   1</c></rc>
    <rc><c>C </c><c>   1</c></rc>
    <rc><c>C </c><c>   1</c></rc>
    <rc><c>C </c><c>   1</c></rc>
    <rc><c>C </c><c>   1</c></rc>
    <rc><c>C </c><c>   1</c></rc>
    <rc><c>C </c><c>   1</c></rc>
    <rc><c>C </c><c>   1</c></rc>
    <rc><c>C </c><c>   1</c></rc>
    <rc><c>C </c><c>   1</c></rc>
    <rc><c>C </c><c>   1</c></rc>
   </set>
  </array>
  <array name="atomtypes" >
   <dimension dim="1">type</dimension>
   <field type="int">atomspertype</field>
   <field type="string">element</field>
   <field>mass</field>
   <field>valence</field>
   <field type="string">pseudopotential</field>
   <set>
    <rc><c>  18</c><c>C </c><c>     12.01100000</c><c>      4.00000000</c><c>  PAW_PBE C 08Apr2002                   </c></rc>
   </set>
  </array>
 </atominfo>
 <structure name="initialpos" >
  <crystal>
   <varray name="basis" >
    <v>       7.40170591       0.00000000       0.00000000 </v>
    <v>      -3.70085295       6.41006527       0.00000000 </v>
    <v>       0.00000000       0.00000000      20.00000000 </v>
   </varray>
   <i name="volume">    948.90835877 </i>
   <varray name="rec_basis" >
    <v>       0.13510399       0.07800233       0.00000000 </v>
    <v>       0.00000000       0.15600465       0.00000000 </v>
    <v>       0.00000000       0.00000000       0.05000000 </v>
   </varray>
  </crystal>
  <varray name="positions" >
   <v>       0.99921998       0.99843995       0.50000000 </v>
   <v>       0.33198229       0.00000000       0.50000000 </v>
   <v>       0.66666667       0.00000000       0.50000000 </v>
   <v>       0.00000000       0.33333333       0.50000000 </v>
   <v>       0.33333333       0.33333333       0.50000000 </v>
   <v>       0.66666667       0.33333333       0.50000000 </v>
   <v>       0.00000000       0.66666667       0.50000000 </v>
   <v>       0.33333333       0.66666667       0.50000000 </v>
   <v>       0.66666667       0.66666667       0.50000000 </v>
   <v>       0.22222222       0.11111111       0.50000000 </v>
   <v>       0.55555556       0.11111111       0.50000000 </v>
   <v>       0.88888889       0.11111111       0.50000000 </v>
   <v>       0.22222222       0.44444444       0.50000000 </v>
   <v>       0.55555556       0.44444444       0.50000000 </v>
   <v>       0.88888889       0.44444444       0.50000000 </v>
   <v>       0.22222222       0.77777778       0.50000000 </v>
   <v>       0.55555556       0.77777778       0.50000000 </v>
   <v>       0.88888889       0.77777778       0.50000000 </v>
  </varray>
 </structure>
 <calculation>
  <scstep>
   <time name="dav">    5.98    6.21</time>
   <time name="total">    6.07    6.30</time>
   <energy>
    <i name="alphaZ">     28.04858418 </i>
    <i name="ewald">  11638.87695502 </i>
    <i name="hartreedc"> -13553.18238061 </i>
    <i name="XCdc">    237.17775642 </i>
    <i name="pawpsdc">   1953.39683484 </i>
    <i name="pawaedc">  -1963.64613940 </i>
    <i name="eentropy">     -0.00826140 </i>
    <i name="bandstr">   -257.75966966 </i>
    <i name="atom">   2648.70517965 </i>
    <i name="e_fr_energy">    731.60885905 </i>
    <i name="e_wo_entrp">    731.61712045 </i>
    <i name="e_0_energy">    731.61298975 </i>
   </energy>
  </scstep>
  <scstep>
   <time name="dav">    7.92    8.22</time>
   <time name="total">    7.92    8.22</time>
   <energy>
    <i name="e_fr_energy">    -23.95057944 </i>
    <i name="e_wo_entrp">    -23.95044859 </i>
    <i name="e_0_energy">    -23.95051402 </i>
   </energy>
  </scstep>
  <scstep>
   <time name="dav">    6.34    6.58</time>
   <time name="total">    6.34    6.58</time>
   <energy>
    <i name="e_fr_energy">   -172.27679844 </i>
    <i name="e_wo_entrp">   -172.27539296 </i>
    <i name="e_0_energy">   -172.27609570 </i>
   </energy>
  </scstep>
  <scstep>
   <time name="dav">    6.29    5.35</time>
   <time name="total">    6.29    5.35</time>
   <energy>
    <i name="e_fr_energy">   -177.34634263 </i>
    <i name="e_wo_entrp">   -177.34434973 </i>
    <i name="e_0_energy">   -177.34534618 </i>
   </energy>
  </scstep>
  <scstep>
   <time name="dav">    7.17    7.44</time>
   <time name="total">    7.44    7.72</time>
   <energy>
    <i name="e_fr_energy">   -177.48426743 </i>
    <i name="e_wo_entrp">   -177.48231158 </i>
    <i name="e_0_energy">   -177.48328950 </i>
   </energy>
  </scstep>
  <scstep>
   <time name="dav">    5.94    6.17</time>
   <time name="total">    6.29    6.53</time>
   <energy>
    <i name="e_fr_energy">   -169.31643533 </i>
    <i name="e_wo_entrp">   -169.31442554 </i>
    <i name="e_0_energy">   -169.31543043 </i>
   </energy>
  </scstep>
  <scstep>
   <time name="dav">    5.90    6.12</time>
   <time name="total">    6.24    6.48</time>
   <energy>
    <i name="e_fr_energy">   -166.14875908 </i>
    <i name="e_wo_entrp">   -166.14670576 </i>
    <i name="e_0_energy">   -166.14773242 </i>
   </energy>
  </scstep>
  <scstep>
   <time name="dav">    6.21    6.45</time>
   <time name="total">    6.57    6.82</time>
   <energy>
    <i name="e_fr_energy">   -166.08559633 </i>
    <i name="e_wo_entrp">   -166.08355749 </i>
    <i name="e_0_energy">   -166.08457691 </i>
   </energy>
  </scstep>
  <scstep>
   <time name="dav">    6.63    5.69</time>
   <time name="total">    6.98    6.06</time>
   <energy>
    <i name="e_fr_energy">   -166.07278402 </i>
    <i name="e_wo_entrp">   -166.07074218 </i>
    <i name="e_0_energy">   -166.07176310 </i>
   </energy>
  </scstep>
  <scstep>
   <time name="dav">    5.81    6.03</time>
   <time name="total">    6.16    6.39</time>
   <energy>
    <i name="e_fr_energy">   -166.05420205 </i>
    <i name="e_wo_entrp">   -166.05215683 </i>
    <i name="e_0_energy">   -166.05317944 </i>
   </energy>
  </scstep>
  <scstep>
   <time name="dav">    5.83    6.05</time>
   <time name="total">    6.17    6.41</time>
   <energy>
    <i name="e_fr_energy">   -166.05731347 </i>
    <i name="e_wo_entrp">   -166.05526940 </i>
    <i name="e_0_energy">   -166.05629143 </i>
   </energy>
  </scstep>
  <scstep>
   <time name="dav">    5.96    6.19</time>
   <time name="total">    6.31    6.55</time>
   <energy>
    <i name="e_fr_energy">   -166.06215888 </i>
    <i name="e_wo_entrp">   -166.06011617 </i>
    <i name="e_0_energy">   -166.06113752 </i>
   </energy>
  </scstep>
  <scstep>
   <time name="dav">    5.72    5.94</time>
   <time name="total">    6.07    6.30</time>
   <energy>
    <i name="e_fr_energy">   -166.06630023 </i>
    <i name="e_wo_entrp">   -166.06425689 </i>
    <i name="e_0_energy">   -166.06527856 </i>
   </energy>
  </scstep>
  <scstep>
   <time name="dav">    5.67    4.48</time>
   <time name="total">    6.02    4.85</time>
   <energy>
    <i name="e_fr_energy">   -166.07008531 </i>
    <i name="e_wo_entrp">   -166.06804143 </i>
    <i name="e_0_energy">   -166.06906337 </i>
   </energy>
  </scstep>
  <scstep>
   <time name="dav">    5.78    6.00</time>
   <time name="total">    6.14    6.37</time>
   <energy>
    <i name="e_fr_energy">   -166.07156634 </i>
    <i name="e_wo_entrp">   -166.06952261 </i>
    <i name="e_0_energy">   -166.07054447 </i>
   </energy>
  </scstep>
  <scstep>
   <time name="dav">    5.95    6.19</time>
   <time name="total">    6.31    6.57</time>
   <energy>
    <i name="e_fr_energy">   -166.07171715 </i>
    <i name="e_wo_entrp">   -166.06967348 </i>
    <i name="e_0_energy">   -166.07069531 </i>
   </energy>
  </scstep>
  <scstep>
   <time name="dav">    5.71    5.96</time>
   <time name="total">    6.06    6.33</time>
   <energy>
    <i name="e_fr_energy">   -166.07193862 </i>
    <i name="e_wo_entrp">   -166.06989507 </i>
    <i name="e_0_energy">   -166.07091685 </i>
   </energy>
  </scstep>
  <scstep>
   <time name="dav">    5.09    5.28</time>
   <time name="total">    5.43    5.64</time>
   <energy>
    <i name="e_fr_energy">   -166.07198503 </i>
    <i name="e_wo_entrp">   -166.06994144 </i>
    <i name="e_0_energy">   -166.07096324 </i>
   </energy>
  </scstep>
  <scstep>
   <time name="dav">    5.00    4.14</time>
   <time name="total">    5.35    4.51</time>
   <energy>
    <i name="e_fr_energy">   -166.07202509 </i>
    <i name="e_wo_entrp">   -166.06998141 </i>
    <i name="e_0_energy">   -166.07100325 </i>
   </energy>
  </scstep>
  <scstep>
   <time name="dav">    4.47    4.64</time>
   <time name="total">    4.82    5.00</time>
   <energy>
    <i name="e_fr_energy">   -166.07204815 </i>
    <i name="e_wo_entrp">   -166.07000451 </i>
    <i name="e_0_energy">   -166.07102633 </i>
   </energy>
  </scstep>
  <scstep>
   <time name="dav">    3.89    4.04</time>
   <time name="total">    4.24    4.40</time>
   <energy>
    <i name="e_fr_energy">   -166.07205649 </i>
    <i name="e_wo_entrp">   -166.07001286 </i>
    <i name="e_0_energy">   -166.07103468 </i>
   </energy>
  </scstep>
  <scstep>
   <time name="dav">    3.91    4.06</time>
   <time name="total">    4.27    4.43</time>
   <energy>
    <i name="e_fr_energy">   -166.07205988 </i>
    <i name="e_wo_entrp">   -166.07001626 </i>
    <i name="e_0_energy">   -166.07103807 </i>
   </energy>
  </scstep>
  <scstep>
   <time name="dav">    3.85    4.00</time>
   <time name="total">    3.94    4.09</time>
   <energy>
    <i name="alphaZ">     28.04858418 </i>
    <i name="ewald">  11638.87695502 </i>
    <i name="hartreedc"> -13861.52628323 </i>
    <i name="XCdc">    247.81454738 </i>
    <i name="pawpsdc">   7452.99171116 </i>
    <i name="pawaedc">  -7465.25515949 </i>
    <i name="eentropy">     -0.00204363 </i>
    <i name="bandstr">   -855.72555145 </i>
    <i name="atom">   2648.70517965 </i>
    <i name="e_fr_energy">   -166.07206040 </i>
    <i name="e_wo_entrp">   -166.07001677 </i>
    <i name="e_0_energy">   -166.07103859 </i>
   </energy>
  </scstep>
  <structure>
   <crystal>
    <varray name="basis" >
     <v>       7.40170591       0.00000000       0.00000000 </v>
     <v>      -3.70085295       6.41006527       0.00000000 </v>
     <v>       0.00000000       0.00000000      20.00000000 </v>
    </varray>
    <i name="volume">    948.90835877 </i>
    <varray name="rec_basis" >
     <v>       0.13510399       0.07800233       0.00000000 </v>
     <v>       0.00000000       0.15600465       0.00000000 </v>
     <v>       0.00000000       0.00000000       0.05000000 </v>
    </varray>
   </crystal>
   <varray name="positions" >
    <v>       0.99921998       0.99843995       0.50000000 </v>
    <v>       0.33198229       0.00000000       0.50000000 </v>
    <v>       0.66666667       0.00000000       0.50000000 </v>
    <v>       0.00000000       0.33333333       0.50000000 </v>
    <v>       0.33333333       0.33333333       0.50000000 </v>
    <v>       0.66666667       0.33333333       0.50000000 </v>
    <v>       0.00000000       0.66666667       0.50000000 </v>
    <v>       0.33333333       0.66666667       0.50000000 </v>
    <v>       0.66666667       0.66666667       0.50000000 </v>
    <v>       0.22222222       0.11111111       0.50000000 </v>
    <v>       0.55555556       0.11111111       0.50000000 </v>
    <v>       0.88888889       0.11111111       0.50000000 </v>
    <v>       0.22222222       0.44444444       0.50000000 </v>
    <v>       0.55555556       0.44444444       0.50000000 </v>
    <v>       0.88888889       0.44444444       0.50000000 </v>
    <v>       0.22222222       0.77777778       0.50000000 </v>
    <v>       0.55555556       0.77777778       0.50000000 </v>
    <v>       0.88888889       0.77777778       0.50000000 </v>
   </varray>
  </structure>
  <varray name="forces" >
   <v>      -0.05001747       0.59241921      -0.00000000 </v>
   <v>       0.58438596       0.01728129       0.00000000 </v>
   <v>      -0.03584573       0.03791628       0.00000000 </v>
   <v>      -0.01058633      -0.03120429      -0.00000000 </v>
   <v>      -0.01295882       0.01502352      -0.00000000 </v>
   <v>       0.00618801      -0.07511012      -0.00000000 </v>
   <v>       0.05239396      -0.05058740      -0.00000000 </v>
   <v>       0.00581882      -0.01040644       0.00000000 </v>
   <v>      -0.07556382      -0.03148664       0.00000000 </v>
   <v>      -0.26162068      -0.08078592       0.00000000 </v>
   <v>      -0.19772620      -0.02688096      -0.00000000 </v>
   <v>       0.05349632      -0.13898713       0.00000000 </v>
   <v>       0.01858590       0.04062693       0.00000000 </v>
   <v>      -0.03204816       0.00675208       0.00000000 </v>
   <v>       0.02828368      -0.00337958      -0.00000000 </v>
   <v>      -0.13080013      -0.00883163       0.00000000 </v>
   <v>       0.04062562      -0.03153496       0.00000000 </v>
   <v>       0.01738906      -0.22082424       0.00000000 </v>
  </varray>
  <varray name="stress" >
   <v>      -0.21482229      -0.07529034       0.00000000 </v>
   <v>      -0.07529034      -0.06747713       0.00000000 </v>
   <v>       0.00000000       0.00000000      -0.56321197 </v>
  </varray>
  <energy>
   <i name="e_fr_energy">   -166.07206040 </i>
   <i name="e_wo_entrp">   -166.07001677 </i>
   <i name="e_0_energy">   -166.07103859 </i>
  </energy>
  <time name="totalsc">  142.62  143.30</time>
  <eigenvalues>
   <array>
    <dimension dim="1">band</dimension>
    <dimension dim="2">kpoint</dimension>
    <dimension dim="3">spin</dimension>
    <field>eigene</field>
    <field>occ</field>
    <set>
     <set comment="spin 1">
      <set comment="kpoint 1">
       <r>  -22.2560    1.0000 </r>
       <r>  -19.7000    1.0000 </r>
       <r>  -19.6837    1.0000 </r>
       <r>  -19.6742    1.0000 </r>
       <r>  -19.6715    1.0000 </r>
       <r>  -19.6627    1.0000 </r>
       <r>  -19.6484    1.0000 </r>
       <r>  -15.3622    1.0000 </r>
       <r>  -15.3431    1.0000 </r>
       <r>  -15.3353    1.0000 </r>
       <r>  -15.3227    1.0000 </r>
       <r>  -13.2945    1.0000 </r>
       <r>  -13.2851    1.0000 </r>
       <r>  -12.4074    1.0000 </r>
       <r>  -12.3846    1.0000 </r>
       <r>  -12.3841    1.0000 </r>
       <r>  -12.3710    1.0000 </r>
       <r>  -12.3609    1.0000 </r>
       <r>  -12.3395    1.0000 </r>
       <r>  -10.3599    1.0000 </r>
       <r>   -8.5567    1.0000 </r>
       <r>   -8.5401    1.0000 </r>
       <r>   -8.5282    1.0000 </r>
       <r>   -8.5196    1.0000 </r>
       <r>   -8.5066    1.0000 </r>
       <r>   -8.4899    1.0000 </r>
       <r>   -7.3913    1.0000 </r>
       <r>   -7.3817    1.0000 </r>
       <r>   -7.3713    1.0000 </r>
       <r>   -7.3702    1.0000 </r>
       <r>   -7.3595    1.0000 </r>
       <r>   -7.3517    1.0000 </r>
       <r>   -5.8074    1.0000 </r>
       <r>   -5.7606    1.0000 </r>
       <r>   -2.7805    0.7633 </r>
       <r>   -2.7587    0.5398 </r>
       <r>   -2.7509    0.4513 </r>
       <r>   -2.7308    0.2455 </r>
       <r>    0.5196    0.0000 </r>
       <r>    1.3120    0.0000 </r>
       <r>    1.6355    0.0000 </r>
       <r>    2.1166    0.0000 </r>
       <r>    2.1330    0.0000 </r>
       <r>    2.1438    0.0000 </r>
       <r>    2.1567    0.0000 </r>
       <r>    2.1716    0.0000 </r>
      </set>
      <set comment="kpoint 2">
       <r>  -22.2024    1.0000 </r>
       <r>  -20.3491    1.0000 </r>
       <r>  -19.9932    1.0000 </r>
       <r>  -19.9759    1.0000 </r>
       <r>  -19.2710    1.0000 </r>
       <r>  -19.2542    1.0000 </r>
       <r>  -18.9057    1.0000 </r>
       <r>  -16.0007    1.0000 </r>
       <r>  -15.9892    1.0000 </r>
       <r>  -14.9179    1.0000 </r>
       <r>  -14.9108    1.0000 </r>
       <r>  -13.5907    1.0000 </r>
       <r>  -12.9852    1.0000 </r>
       <r>  -12.9704    1.0000 </r>
       <r>  -12.9546    1.0000 </r>
       <r>  -12.9481    1.0000 </r>
       <r>  -11.7493    1.0000 </r>
       <r>  -11.7318    1.0000 </r>
       <r>  -11.1075    1.0000 </r>
       <r>  -10.2960    1.0000 </r>
       <r>   -8.8666    1.0000 </r>
       <r>   -8.8575    1.0000 </r>
       <r>   -8.8345    1.0000 </r>
       <r>   -8.5096    1.0000 </r>
       <r>   -8.4947    1.0000 </r>
       <r>   -8.1434    1.0000 </r>
       <r>   -8.1289    1.0000 </r>
       <r>   -7.7190    1.0000 </r>
       <r>   -7.7053    1.0000 </r>
       <r>   -6.9278    1.0000 </r>
       <r>   -6.9152    1.0000 </r>
       <r>   -6.5612    1.0000 </r>
       <r>   -5.9831    1.0000 </r>
       <r>   -5.9211    1.0000 </r>
       <r>   -3.5297    1.0000 </r>
       <r>   -3.5230    1.0000 </r>
       <r>   -2.0081    0.0000 </r>
       <r>   -2.0016    0.0000 </r>
       <r>    0.5923    0.0000 </r>
       <r>    0.8855    0.0000 </r>
       <r>    1.3855    0.0000 </r>
       <r>    1.4616    0.0000 </r>
       <r>    1.4796    0.0000 </r>
       <r>    1.7100    0.0000 </r>
       <r>    2.6299    0.0000 </r>
       <r>    2.7467    0.0000 </r>
      </set>
      <set comment="kpoint 3">
       <r>  -22.2025    1.0000 </r>
       <r>  -20.3496    1.0000 </r>
       <r>  -19.9908    1.0000 </r>
       <r>  -19.9775    1.0000 </r>
       <r>  -19.2691    1.0000 </r>
       <r>  -19.2557    1.0000 </r>
       <r>  -18.9061    1.0000 </r>
       <r>  -16.0008    1.0000 </r>
       <r>  -15.9909    1.0000 </r>
       <r>  -14.9203    1.0000 </r>
       <r>  -14.9045    1.0000 </r>
       <r>  -13.6033    1.0000 </r>
       <r>  -12.9788    1.0000 </r>
       <r>  -12.9706    1.0000 </r>
       <r>  -12.9534    1.0000 </r>
       <r>  -12.9462    1.0000 </r>
       <r>  -11.7414    1.0000 </r>
       <r>  -11.7211    1.0000 </r>
       <r>  -11.1242    1.0000 </r>
       <r>  -10.2960    1.0000 </r>
       <r>   -8.8775    1.0000 </r>
       <r>   -8.8612    1.0000 </r>
       <r>   -8.8182    1.0000 </r>
       <r>   -8.5247    1.0000 </r>
       <r>   -8.5035    1.0000 </r>
       <r>   -8.1260    1.0000 </r>
       <r>   -8.1218    1.0000 </r>
       <r>   -7.7198    1.0000 </r>
       <r>   -7.7093    1.0000 </r>
       <r>   -6.9291    1.0000 </r>
       <r>   -6.9183    1.0000 </r>
       <r>   -6.5537    1.0000 </r>
       <r>   -6.0219    1.0000 </r>
       <r>   -5.8819    1.0000 </r>
       <r>   -3.5338    1.0000 </r>
       <r>   -3.5203    1.0000 </r>
       <r>   -2.0123    0.0000 </r>
       <r>   -1.9959    0.0000 </r>
       <r>    0.5923    0.0000 </r>
       <r>    0.8672    0.0000 </r>
       <r>    1.3855    0.0000 </r>
       <r>    1.4671    0.0000 </r>
       <r>    1.4858    0.0000 </r>
       <r>    1.7100    0.0000 </r>
       <r>    2.6299    0.0000 </r>
       <r>    2.7571    0.0000 </r>
      </set>
      <set comment="kpoint 4">
       <r>  -22.2025    1.0000 </r>
       <r>  -20.3494    1.0000 </r>
       <r>  -19.9888    1.0000 </r>
       <r>  -19.9799    1.0000 </r>
       <r>  -19.2668    1.0000 </r>
       <r>  -19.2581    1.0000 </r>
       <r>  -18.9060    1.0000 </r>
       <r>  -15.9996    1.0000 </r>
       <r>  -15.9915    1.0000 </r>
       <r>  -14.9237    1.0000 </r>
       <r>  -14.9022    1.0000 </r>
       <r>  -13.5998    1.0000 </r>
       <r>  -12.9829    1.0000 </r>
       <r>  -12.9662    1.0000 </r>
       <r>  -12.9579    1.0000 </r>
       <r>  -12.9447    1.0000 </r>
       <r>  -11.7447    1.0000 </r>
       <r>  -11.7226    1.0000 </r>
       <r>  -11.1198    1.0000 </r>
       <r>  -10.2960    1.0000 </r>
       <r>   -8.8785    1.0000 </r>
       <r>   -8.8544    1.0000 </r>
       <r>   -8.8245    1.0000 </r>
       <r>   -8.5247    1.0000 </r>
       <r>   -8.4971    1.0000 </r>
       <r>   -8.1276    1.0000 </r>
       <r>   -8.1268    1.0000 </r>
       <r>   -7.7173    1.0000 </r>
       <r>   -7.7106    1.0000 </r>
       <r>   -6.9273    1.0000 </r>
       <r>   -6.9189    1.0000 </r>
       <r>   -6.5557    1.0000 </r>
       <r>   -6.0142    1.0000 </r>
       <r>   -5.8897    1.0000 </r>
       <r>   -3.5357    1.0000 </r>
       <r>   -3.5179    1.0000 </r>
       <r>   -2.0155    0.0000 </r>
       <r>   -1.9932    0.0000 </r>
       <r>    0.5923    0.0000 </r>
       <r>    0.8721    0.0000 </r>
       <r>    1.3855    0.0000 </r>
       <r>    1.4649    0.0000 </r>
       <r>    1.4848    0.0000 </r>
       <r>    1.7100    0.0000 </r>
       <r>    2.6299    0.0000 </r>
       <r>    2.7560    0.0000 </r>
      </set>
      <set comment="kpoint 5">
       <r>  -22.0419    1.0000 </r>
       <r>  -20.9266    1.0000 </r>
       <r>  -20.2017    1.0000 </r>
       <r>  -20.1844    1.0000 </r>
       <r>  -18.7637    1.0000 </r>
       <r>  -18.7470    1.0000 </r>
       <r>  -18.0633    1.0000 </r>
       <r>  -16.7518    1.0000 </r>
       <r>  -16.7377    1.0000 </r>
       <r>  -14.7467    1.0000 </r>
       <r>  -14.6315    1.0000 </r>
       <r>  -14.6204    1.0000 </r>
       <r>  -13.5096    1.0000 </r>
       <r>  -13.4951    1.0000 </r>
       <r>  -12.1883    1.0000 </r>
       <r>  -12.1762    1.0000 </r>
       <r>  -11.1155    1.0000 </r>
       <r>  -11.0961    1.0000 </r>
       <r>  -10.1049    1.0000 </r>
       <r>   -9.8488    1.0000 </r>
       <r>   -9.4942    1.0000 </r>
       <r>   -9.4883    1.0000 </r>
       <r>   -9.0484    1.0000 </r>
       <r>   -8.7928    1.0000 </r>
       <r>   -8.7593    1.0000 </r>
       <r>   -8.7438    1.0000 </r>
       <r>   -7.9503    1.0000 </r>
       <r>   -7.9364    1.0000 </r>
       <r>   -7.6851    1.0000 </r>
       <r>   -6.6026    1.0000 </r>
       <r>   -6.3824    1.0000 </r>
       <r>   -6.3704    1.0000 </r>
       <r>   -6.2364    1.0000 </r>
       <r>   -5.7718    1.0000 </r>
       <r>   -4.3023    1.0000 </r>
       <r>   -4.2942    1.0000 </r>
       <r>   -1.2881    0.0000 </r>
       <r>   -1.2794    0.0000 </r>
       <r>   -0.2242    0.0000 </r>
       <r>    0.7771    0.0000 </r>
       <r>    0.7934    0.0000 </r>
       <r>    0.8102    0.0000 </r>
       <r>    1.6063    0.0000 </r>
       <r>    1.9334    0.0000 </r>
       <r>    2.3341    0.0000 </r>
       <r>    2.8512    0.0000 </r>
      </set>
      <set comment="kpoint 6">
       <r>  -22.0420    1.0000 </r>
       <r>  -20.9270    1.0000 </r>
       <r>  -20.1993    1.0000 </r>
       <r>  -20.1858    1.0000 </r>
       <r>  -18.7619    1.0000 </r>
       <r>  -18.7490    1.0000 </r>
       <r>  -18.0627    1.0000 </r>
       <r>  -16.7510    1.0000 </r>
       <r>  -16.7401    1.0000 </r>
       <r>  -14.7595    1.0000 </r>
       <r>  -14.6303    1.0000 </r>
       <r>  -14.6149    1.0000 </r>
       <r>  -13.5055    1.0000 </r>
       <r>  -13.4888    1.0000 </r>
       <r>  -12.1926    1.0000 </r>
       <r>  -12.1777    1.0000 </r>
       <r>  -11.1031    1.0000 </r>
       <r>  -11.0817    1.0000 </r>
       <r>  -10.1046    1.0000 </r>
       <r>   -9.8687    1.0000 </r>
       <r>   -9.5058    1.0000 </r>
       <r>   -9.4908    1.0000 </r>
       <r>   -9.0303    1.0000 </r>
       <r>   -8.7911    1.0000 </r>
       <r>   -8.7780    1.0000 </r>
       <r>   -8.7572    1.0000 </r>
       <r>   -7.9511    1.0000 </r>
       <r>   -7.9405    1.0000 </r>
       <r>   -7.6609    1.0000 </r>
       <r>   -6.6364    1.0000 </r>
       <r>   -6.3839    1.0000 </r>
       <r>   -6.3731    1.0000 </r>
       <r>   -6.2012    1.0000 </r>
       <r>   -5.7599    1.0000 </r>
       <r>   -4.3056    1.0000 </r>
       <r>   -4.2933    1.0000 </r>
       <r>   -1.2909    0.0000 </r>
       <r>   -1.2731    0.0000 </r>
       <r>   -0.2476    0.0000 </r>
       <r>    0.7806    0.0000 </r>
       <r>    0.7995    0.0000 </r>
       <r>    0.8102    0.0000 </r>
       <r>    1.6063    0.0000 </r>
       <r>    1.9334    0.0000 </r>
       <r>    2.3341    0.0000 </r>
       <r>    2.8513    0.0000 </r>
      </set>
      <set comment="kpoint 7">
       <r>  -22.0420    1.0000 </r>
       <r>  -20.9268    1.0000 </r>
       <r>  -20.1973    1.0000 </r>
       <r>  -20.1882    1.0000 </r>
       <r>  -18.7595    1.0000 </r>
       <r>  -18.7514    1.0000 </r>
       <r>  -18.0629    1.0000 </r>
       <r>  -16.7482    1.0000 </r>
       <r>  -16.7424    1.0000 </r>
       <r>  -14.7565    1.0000 </r>
       <r>  -14.6333    1.0000 </r>
       <r>  -14.6133    1.0000 </r>
       <r>  -13.5082    1.0000 </r>
       <r>  -13.4889    1.0000 </r>
       <r>  -12.1931    1.0000 </r>
       <r>  -12.1756    1.0000 </r>
       <r>  -11.1076    1.0000 </r>
       <r>  -11.0843    1.0000 </r>
       <r>  -10.1047    1.0000 </r>
       <r>   -9.8635    1.0000 </r>
       <r>   -9.5064    1.0000 </r>
       <r>   -9.4861    1.0000 </r>
       <r>   -9.0353    1.0000 </r>
       <r>   -8.7915    1.0000 </r>
       <r>   -8.7763    1.0000 </r>
       <r>   -8.7504    1.0000 </r>
       <r>   -7.9484    1.0000 </r>
       <r>   -7.9419    1.0000 </r>
       <r>   -7.6673    1.0000 </r>
       <r>   -6.6282    1.0000 </r>
       <r>   -6.3827    1.0000 </r>
       <r>   -6.3732    1.0000 </r>
       <r>   -6.2098    1.0000 </r>
       <r>   -5.7631    1.0000 </r>
       <r>   -4.3067    1.0000 </r>
       <r>   -4.2914    1.0000 </r>
       <r>   -1.2943    0.0000 </r>
       <r>   -1.2708    0.0000 </r>
       <r>   -0.2413    0.0000 </r>
       <r>    0.7779    0.0000 </r>
       <r>    0.7996    0.0000 </r>
       <r>    0.8102    0.0000 </r>
       <r>    1.6063    0.0000 </r>
       <r>    1.9335    0.0000 </r>
       <r>    2.3341    0.0000 </r>
       <r>    2.8513    0.0000 </r>
      </set>
      <set comment="kpoint 8">
       <r>  -21.7750    1.0000 </r>
       <r>  -21.4026    1.0000 </r>
       <r>  -20.3063    1.0000 </r>
       <r>  -20.2890    1.0000 </r>
       <r>  -18.1664    1.0000 </r>
       <r>  -18.1500    1.0000 </r>
       <r>  -17.4893    1.0000 </r>
       <r>  -17.4733    1.0000 </r>
       <r>  -17.2315    1.0000 </r>
       <r>  -15.7358    1.0000 </r>
       <r>  -14.3308    1.0000 </r>
       <r>  -14.3184    1.0000 </r>
       <r>  -13.9602    1.0000 </r>
       <r>  -13.9469    1.0000 </r>
       <r>  -11.2619    1.0000 </r>
       <r>  -11.2510    1.0000 </r>
       <r>  -10.6207    1.0000 </r>
       <r>  -10.5990    1.0000 </r>
       <r>  -10.3280    1.0000 </r>
       <r>  -10.3205    1.0000 </r>
       <r>   -9.7881    1.0000 </r>
       <r>   -9.3490    1.0000 </r>
       <r>   -9.1550    1.0000 </r>
       <r>   -9.0834    1.0000 </r>
       <r>   -9.0693    1.0000 </r>
       <r>   -8.6316    1.0000 </r>
       <r>   -8.0667    1.0000 </r>
       <r>   -8.0528    1.0000 </r>
       <r>   -7.5219    1.0000 </r>
       <r>   -7.1838    1.0000 </r>
       <r>   -6.6815    1.0000 </r>
       <r>   -5.7518    1.0000 </r>
       <r>   -5.7405    1.0000 </r>
       <r>   -5.2089    1.0000 </r>
       <r>   -5.0503    1.0000 </r>
       <r>   -5.0413    1.0000 </r>
       <r>   -0.9540    0.0000 </r>
       <r>   -0.5920    0.0000 </r>
       <r>   -0.5799    0.0000 </r>
       <r>    0.0930    0.0000 </r>
       <r>    0.1071    0.0000 </r>
       <r>    1.1734    0.0000 </r>
       <r>    1.6817    0.0000 </r>
       <r>    1.9737    0.0000 </r>
       <r>    2.3059    0.0000 </r>
       <r>    2.4865    0.0000 </r>
      </set>
      <set comment="kpoint 9">
       <r>  -21.7752    1.0000 </r>
       <r>  -21.4029    1.0000 </r>
       <r>  -20.3039    1.0000 </r>
       <r>  -20.2903    1.0000 </r>
       <r>  -18.1647    1.0000 </r>
       <r>  -18.1526    1.0000 </r>
       <r>  -17.4876    1.0000 </r>
       <r>  -17.4754    1.0000 </r>
       <r>  -17.2266    1.0000 </r>
       <r>  -15.7530    1.0000 </r>
       <r>  -14.3286    1.0000 </r>
       <r>  -14.3128    1.0000 </r>
       <r>  -13.9570    1.0000 </r>
       <r>  -13.9406    1.0000 </r>
       <r>  -11.2679    1.0000 </r>
       <r>  -11.2536    1.0000 </r>
       <r>  -10.5994    1.0000 </r>
       <r>  -10.5777    1.0000 </r>
       <r>  -10.3372    1.0000 </r>
       <r>  -10.3228    1.0000 </r>
       <r>   -9.7876    1.0000 </r>
       <r>   -9.3479    1.0000 </r>
       <r>   -9.1376    1.0000 </r>
       <r>   -9.1087    1.0000 </r>
       <r>   -9.0914    1.0000 </r>
       <r>   -8.6554    1.0000 </r>
       <r>   -8.0675    1.0000 </r>
       <r>   -8.0569    1.0000 </r>
       <r>   -7.5503    1.0000 </r>
       <r>   -7.1570    1.0000 </r>
       <r>   -6.6502    1.0000 </r>
       <r>   -5.7534    1.0000 </r>
       <r>   -5.7428    1.0000 </r>
       <r>   -5.1908    1.0000 </r>
       <r>   -5.0535    1.0000 </r>
       <r>   -5.0418    1.0000 </r>
       <r>   -0.9823    0.0000 </r>
       <r>   -0.5931    0.0000 </r>
       <r>   -0.5743    0.0000 </r>
       <r>    0.0946    0.0000 </r>
       <r>    0.1132    0.0000 </r>
       <r>    1.1735    0.0000 </r>
       <r>    1.6817    0.0000 </r>
       <r>    1.9737    0.0000 </r>
       <r>    2.3059    0.0000 </r>
       <r>    2.4867    0.0000 </r>
      </set>
      <set comment="kpoint 10">
       <r>  -21.7752    1.0000 </r>
       <r>  -21.4027    1.0000 </r>
       <r>  -20.3019    1.0000 </r>
       <r>  -20.2927    1.0000 </r>
       <r>  -18.1622    1.0000 </r>
       <r>  -18.1549    1.0000 </r>
       <r>  -17.4849    1.0000 </r>
       <r>  -17.4783    1.0000 </r>
       <r>  -17.2274    1.0000 </r>
       <r>  -15.7484    1.0000 </r>
       <r>  -14.3318    1.0000 </r>
       <r>  -14.3120    1.0000 </r>
       <r>  -13.9594    1.0000 </r>
       <r>  -13.9405    1.0000 </r>
       <r>  -11.2684    1.0000 </r>
       <r>  -11.2508    1.0000 </r>
       <r>  -10.6056    1.0000 </r>
       <r>  -10.5830    1.0000 </r>
       <r>  -10.3375    1.0000 </r>
       <r>  -10.3192    1.0000 </r>
       <r>   -9.7878    1.0000 </r>
       <r>   -9.3481    1.0000 </r>
       <r>   -9.1416    1.0000 </r>
       <r>   -9.1040    1.0000 </r>
       <r>   -9.0838    1.0000 </r>
       <r>   -8.6495    1.0000 </r>
       <r>   -8.0647    1.0000 </r>
       <r>   -8.0584    1.0000 </r>
       <r>   -7.5428    1.0000 </r>
       <r>   -7.1644    1.0000 </r>
       <r>   -6.6581    1.0000 </r>
       <r>   -5.7531    1.0000 </r>
       <r>   -5.7421    1.0000 </r>
       <r>   -5.1961    1.0000 </r>
       <r>   -5.0535    1.0000 </r>
       <r>   -5.0403    1.0000 </r>
       <r>   -0.9749    0.0000 </r>
       <r>   -0.5959    0.0000 </r>
       <r>   -0.5727    0.0000 </r>
       <r>    0.0914    0.0000 </r>
       <r>    0.1145    0.0000 </r>
       <r>    1.1735    0.0000 </r>
       <r>    1.6817    0.0000 </r>
       <r>    1.9737    0.0000 </r>
       <r>    2.3059    0.0000 </r>
       <r>    2.4867    0.0000 </r>
      </set>
      <set comment="kpoint 11">
       <r>  -22.0954    1.0000 </r>
       <r>  -20.6190    1.0000 </r>
       <r>  -20.6032    1.0000 </r>
       <r>  -19.5302    1.0000 </r>
       <r>  -19.5089    1.0000 </r>
       <r>  -18.4632    1.0000 </r>
       <r>  -18.4467    1.0000 </r>
       <r>  -16.7791    1.0000 </r>
       <r>  -16.1601    1.0000 </r>
       <r>  -15.2440    1.0000 </r>
       <r>  -14.2536    1.0000 </r>
       <r>  -14.1701    1.0000 </r>
       <r>  -14.1441    1.0000 </r>
       <r>  -12.6073    1.0000 </r>
       <r>  -12.3188    1.0000 </r>
       <r>  -12.3036    1.0000 </r>
       <r>  -12.2652    1.0000 </r>
       <r>  -10.5032    1.0000 </r>
       <r>  -10.4677    1.0000 </r>
       <r>  -10.1684    1.0000 </r>
       <r>   -9.1884    1.0000 </r>
       <r>   -9.1613    1.0000 </r>
       <r>   -9.1364    1.0000 </r>
       <r>   -9.1113    1.0000 </r>
       <r>   -8.4325    1.0000 </r>
       <r>   -8.4199    1.0000 </r>
       <r>   -8.0937    1.0000 </r>
       <r>   -8.0576    1.0000 </r>
       <r>   -7.2000    1.0000 </r>
       <r>   -7.1804    1.0000 </r>
       <r>   -6.4036    1.0000 </r>
       <r>   -6.1356    1.0000 </r>
       <r>   -6.1127    1.0000 </r>
       <r>   -6.0979    1.0000 </r>
       <r>   -4.2596    1.0000 </r>
       <r>   -3.8966    1.0000 </r>
       <r>   -1.7141    0.0000 </r>
       <r>   -1.2625    0.0000 </r>
       <r>    0.2627    0.0000 </r>
       <r>    0.2874    0.0000 </r>
       <r>    0.7376    0.0000 </r>
       <r>    1.5327    0.0000 </r>
       <r>    1.8590    0.0000 </r>
       <r>    1.9968    0.0000 </r>
       <r>    2.0230    0.0000 </r>
       <r>    2.7775    0.0000 </r>
      </set>
      <set comment="kpoint 12">
       <r>  -22.0954    1.0000 </r>
       <r>  -20.6162    1.0000 </r>
       <r>  -20.6062    1.0000 </r>
       <r>  -19.5258    1.0000 </r>
       <r>  -19.5125    1.0000 </r>
       <r>  -18.4601    1.0000 </r>
       <r>  -18.4499    1.0000 </r>
       <r>  -16.7779    1.0000 </r>
       <r>  -16.1685    1.0000 </r>
       <r>  -15.2268    1.0000 </r>
       <r>  -14.2659    1.0000 </r>
       <r>  -14.1686    1.0000 </r>
       <r>  -14.1543    1.0000 </r>
       <r>  -12.5966    1.0000 </r>
       <r>  -12.3051    1.0000 </r>
       <r>  -12.2947    1.0000 </r>
       <r>  -12.2763    1.0000 </r>
       <r>  -10.4997    1.0000 </r>
       <r>  -10.4805    1.0000 </r>
       <r>  -10.1683    1.0000 </r>
       <r>   -9.1979    1.0000 </r>
       <r>   -9.1803    1.0000 </r>
       <r>   -9.1229    1.0000 </r>
       <r>   -9.1103    1.0000 </r>
       <r>   -8.4297    1.0000 </r>
       <r>   -8.4218    1.0000 </r>
       <r>   -8.0787    1.0000 </r>
       <r>   -8.0605    1.0000 </r>
       <r>   -7.1995    1.0000 </r>
       <r>   -7.1873    1.0000 </r>
       <r>   -6.4290    1.0000 </r>
       <r>   -6.1095    1.0000 </r>
       <r>   -6.1052    1.0000 </r>
       <r>   -6.0975    1.0000 </r>
       <r>   -4.2515    1.0000 </r>
       <r>   -3.9098    1.0000 </r>
       <r>   -1.6963    0.0000 </r>
       <r>   -1.2748    0.0000 </r>
       <r>    0.2609    0.0000 </r>
       <r>    0.2719    0.0000 </r>
       <r>    0.7376    0.0000 </r>
       <r>    1.5328    0.0000 </r>
       <r>    1.8590    0.0000 </r>
       <r>    2.0117    0.0000 </r>
       <r>    2.0279    0.0000 </r>
       <r>    2.7775    0.0000 </r>
      </set>
      <set comment="kpoint 13">
       <r>  -22.0954    1.0000 </r>
       <r>  -20.6176    1.0000 </r>
       <r>  -20.6045    1.0000 </r>
       <r>  -19.5286    1.0000 </r>
       <r>  -19.5108    1.0000 </r>
       <r>  -18.4617    1.0000 </r>
       <r>  -18.4481    1.0000 </r>
       <r>  -16.7793    1.0000 </r>
       <r>  -16.1570    1.0000 </r>
       <r>  -15.2505    1.0000 </r>
       <r>  -14.2499    1.0000 </r>
       <r>  -14.1666    1.0000 </r>
       <r>  -14.1436    1.0000 </r>
       <r>  -12.6115    1.0000 </r>
       <r>  -12.3211    1.0000 </r>
       <r>  -12.3079    1.0000 </r>
       <r>  -12.2627    1.0000 </r>
       <r>  -10.4980    1.0000 </r>
       <r>  -10.4694    1.0000 </r>
       <r>  -10.1685    1.0000 </r>
       <r>   -9.1803    1.0000 </r>
       <r>   -9.1606    1.0000 </r>
       <r>   -9.1341    1.0000 </r>
       <r>   -9.1175    1.0000 </r>
       <r>   -8.4316    1.0000 </r>
       <r>   -8.4212    1.0000 </r>
       <r>   -8.0920    1.0000 </r>
       <r>   -8.0636    1.0000 </r>
       <r>   -7.1972    1.0000 </r>
       <r>   -7.1809    1.0000 </r>
       <r>   -6.3934    1.0000 </r>
       <r>   -6.1461    1.0000 </r>
       <r>   -6.1126    1.0000 </r>
       <r>   -6.1008    1.0000 </r>
       <r>   -4.2624    1.0000 </r>
       <r>   -3.8918    1.0000 </r>
       <r>   -1.7207    0.0000 </r>
       <r>   -1.2581    0.0000 </r>
       <r>    0.2685    0.0000 </r>
       <r>    0.2879    0.0000 </r>
       <r>    0.7376    0.0000 </r>
       <r>    1.5327    0.0000 </r>
       <r>    1.8590    0.0000 </r>
       <r>    1.9954    0.0000 </r>
       <r>    2.0171    0.0000 </r>
       <r>    2.7775    0.0000 </r>
      </set>
      <set comment="kpoint 14">
       <r>  -21.8817    1.0000 </r>
       <r>  -21.1379    1.0000 </r>
       <r>  -20.7690    1.0000 </r>
       <r>  -19.6749    1.0000 </r>
       <r>  -18.9579    1.0000 </r>
       <r>  -17.9166    1.0000 </r>
       <r>  -17.5981    1.0000 </r>
       <r>  -17.5696    1.0000 </r>
       <r>  -16.6703    1.0000 </r>
       <r>  -15.2555    1.0000 </r>
       <r>  -15.2425    1.0000 </r>
       <r>  -14.6399    1.0000 </r>
       <r>  -13.7283    1.0000 </r>
       <r>  -12.8208    1.0000 </r>
       <r>  -11.8977    1.0000 </r>
       <r>  -11.6902    1.0000 </r>
       <r>  -11.3871    1.0000 </r>
       <r>  -10.0413    1.0000 </r>
       <r>   -9.9289    1.0000 </r>
       <r>   -9.9144    1.0000 </r>
       <r>   -9.7050    1.0000 </r>
       <r>   -9.6205    1.0000 </r>
       <r>   -9.2943    1.0000 </r>
       <r>   -9.2483    1.0000 </r>
       <r>   -9.0385    1.0000 </r>
       <r>   -8.6057    1.0000 </r>
       <r>   -8.2447    1.0000 </r>
       <r>   -7.5942    1.0000 </r>
       <r>   -7.3526    1.0000 </r>
       <r>   -7.1296    1.0000 </r>
       <r>   -6.5682    1.0000 </r>
       <r>   -6.5592    1.0000 </r>
       <r>   -5.5776    1.0000 </r>
       <r>   -5.3941    1.0000 </r>
       <r>   -5.0739    1.0000 </r>
       <r>   -4.4315    1.0000 </r>
       <r>   -1.2986    0.0000 </r>
       <r>   -0.6708    0.0000 </r>
       <r>   -0.4246    0.0000 </r>
       <r>   -0.3055    0.0000 </r>
       <r>    1.0282    0.0000 </r>
       <r>    1.2267    0.0000 </r>
       <r>    1.8268    0.0000 </r>
       <r>    2.0446    0.0000 </r>
       <r>    2.1569    0.0000 </r>
       <r>    2.3965    0.0000 </r>
      </set>
      <set comment="kpoint 15">
       <r>  -21.8818    1.0000 </r>
       <r>  -21.1381    1.0000 </r>
       <r>  -20.7687    1.0000 </r>
       <r>  -19.6742    1.0000 </r>
       <r>  -18.9580    1.0000 </r>
       <r>  -17.9171    1.0000 </r>
       <r>  -17.5941    1.0000 </r>
       <r>  -17.5713    1.0000 </r>
       <r>  -16.6749    1.0000 </r>
       <r>  -15.2602    1.0000 </r>
       <r>  -15.2392    1.0000 </r>
       <r>  -14.6373    1.0000 </r>
       <r>  -13.7348    1.0000 </r>
       <r>  -12.8138    1.0000 </r>
       <r>  -11.8907    1.0000 </r>
       <r>  -11.6721    1.0000 </r>
       <r>  -11.3973    1.0000 </r>
       <r>  -10.0492    1.0000 </r>
       <r>   -9.9141    1.0000 </r>
       <r>   -9.9140    1.0000 </r>
       <r>   -9.7090    1.0000 </r>
       <r>   -9.6413    1.0000 </r>
       <r>   -9.2816    1.0000 </r>
       <r>   -9.2637    1.0000 </r>
       <r>   -9.0372    1.0000 </r>
       <r>   -8.6072    1.0000 </r>
       <r>   -8.2618    1.0000 </r>
       <r>   -7.5708    1.0000 </r>
       <r>   -7.3564    1.0000 </r>
       <r>   -7.1611    1.0000 </r>
       <r>   -6.5702    1.0000 </r>
       <r>   -6.5260    1.0000 </r>
       <r>   -5.5791    1.0000 </r>
       <r>   -5.3791    1.0000 </r>
       <r>   -5.0694    1.0000 </r>
       <r>   -4.4421    1.0000 </r>
       <r>   -1.2824    0.0000 </r>
       <r>   -0.6968    0.0000 </r>
       <r>   -0.4350    0.0000 </r>
       <r>   -0.3016    0.0000 </r>
       <r>    1.0283    0.0000 </r>
       <r>    1.2313    0.0000 </r>
       <r>    1.8269    0.0000 </r>
       <r>    2.0447    0.0000 </r>
       <r>    2.1569    0.0000 </r>
       <r>    2.4105    0.0000 </r>
      </set>
      <set comment="kpoint 16">
       <r>  -21.8817    1.0000 </r>
       <r>  -21.1381    1.0000 </r>
       <r>  -20.7686    1.0000 </r>
       <r>  -19.6746    1.0000 </r>
       <r>  -18.9584    1.0000 </r>
       <r>  -17.9175    1.0000 </r>
       <r>  -17.5952    1.0000 </r>
       <r>  -17.5709    1.0000 </r>
       <r>  -16.6683    1.0000 </r>
       <r>  -15.2665    1.0000 </r>
       <r>  -15.2480    1.0000 </r>
       <r>  -14.6272    1.0000 </r>
       <r>  -13.7186    1.0000 </r>
       <r>  -12.8291    1.0000 </r>
       <r>  -11.9083    1.0000 </r>
       <r>  -11.6857    1.0000 </r>
       <r>  -11.3820    1.0000 </r>
       <r>  -10.0304    1.0000 </r>
       <r>   -9.9144    1.0000 </r>
       <r>   -9.9075    1.0000 </r>
       <r>   -9.7209    1.0000 </r>
       <r>   -9.6260    1.0000 </r>
       <r>   -9.2839    1.0000 </r>
       <r>   -9.2663    1.0000 </r>
       <r>   -9.0371    1.0000 </r>
       <r>   -8.6075    1.0000 </r>
       <r>   -8.2700    1.0000 </r>
       <r>   -7.5711    1.0000 </r>
       <r>   -7.3540    1.0000 </r>
       <r>   -7.1361    1.0000 </r>
       <r>   -6.5643    1.0000 </r>
       <r>   -6.5525    1.0000 </r>
       <r>   -5.5888    1.0000 </r>
       <r>   -5.3837    1.0000 </r>
       <r>   -5.0783    1.0000 </r>
       <r>   -4.4248    1.0000 </r>
       <r>   -1.3088    0.0000 </r>
       <r>   -0.6885    0.0000 </r>
       <r>   -0.4177    0.0000 </r>
       <r>   -0.2829    0.0000 </r>
       <r>    1.0282    0.0000 </r>
       <r>    1.2154    0.0000 </r>
       <r>    1.8268    0.0000 </r>
       <r>    2.0447    0.0000 </r>
       <r>    2.1569    0.0000 </r>
       <r>    2.4023    0.0000 </r>
      </set>
      <set comment="kpoint 17">
       <r>  -21.8818    1.0000 </r>
       <r>  -21.1379    1.0000 </r>
       <r>  -20.7689    1.0000 </r>
       <r>  -19.6744    1.0000 </r>
       <r>  -18.9579    1.0000 </r>
       <r>  -17.9167    1.0000 </r>
       <r>  -17.5979    1.0000 </r>
       <r>  -17.5681    1.0000 </r>
       <r>  -16.6748    1.0000 </r>
       <r>  -15.2595    1.0000 </r>
       <r>  -15.2358    1.0000 </r>
       <r>  -14.6407    1.0000 </r>
       <r>  -13.7366    1.0000 </r>
       <r>  -12.8123    1.0000 </r>
       <r>  -11.8890    1.0000 </r>
       <r>  -11.6747    1.0000 </r>
       <r>  -11.3974    1.0000 </r>
       <r>  -10.0513    1.0000 </r>
       <r>   -9.9205    1.0000 </r>
       <r>   -9.9141    1.0000 </r>
       <r>   -9.7045    1.0000 </r>
       <r>   -9.6379    1.0000 </r>
       <r>   -9.2810    1.0000 </r>
       <r>   -9.2628    1.0000 </r>
       <r>   -9.0376    1.0000 </r>
       <r>   -8.6066    1.0000 </r>
       <r>   -8.2540    1.0000 </r>
       <r>   -7.5785    1.0000 </r>
       <r>   -7.3557    1.0000 </r>
       <r>   -7.1572    1.0000 </r>
       <r>   -6.5709    1.0000 </r>
       <r>   -6.5302    1.0000 </r>
       <r>   -5.5762    1.0000 </r>
       <r>   -5.3832    1.0000 </r>
       <r>   -5.0685    1.0000 </r>
       <r>   -4.4427    1.0000 </r>
       <r>   -1.2814    0.0000 </r>
       <r>   -0.6906    0.0000 </r>
       <r>   -0.4346    0.0000 </r>
       <r>   -0.3082    0.0000 </r>
       <r>    1.0283    0.0000 </r>
       <r>    1.2337    0.0000 </r>
       <r>    1.8269    0.0000 </r>
       <r>    2.0446    0.0000 </r>
       <r>    2.1569    0.0000 </r>
       <r>    2.4078    0.0000 </r>
      </set>
      <set comment="kpoint 18">
       <r>  -21.8818    1.0000 </r>
       <r>  -21.1383    1.0000 </r>
       <r>  -20.7685    1.0000 </r>
       <r>  -19.6744    1.0000 </r>
       <r>  -18.9583    1.0000 </r>
       <r>  -17.9176    1.0000 </r>
       <r>  -17.5929    1.0000 </r>
       <r>  -17.5726    1.0000 </r>
       <r>  -16.6701    1.0000 </r>
       <r>  -15.2646    1.0000 </r>
       <r>  -15.2487    1.0000 </r>
       <r>  -14.6273    1.0000 </r>
       <r>  -13.7217    1.0000 </r>
       <r>  -12.8259    1.0000 </r>
       <r>  -11.9050    1.0000 </r>
       <r>  -11.6804    1.0000 </r>
       <r>  -11.3855    1.0000 </r>
       <r>  -10.0352    1.0000 </r>
       <r>   -9.9143    1.0000 </r>
       <r>   -9.9037    1.0000 </r>
       <r>   -9.7207    1.0000 </r>
       <r>   -9.6323    1.0000 </r>
       <r>   -9.2825    1.0000 </r>
       <r>   -9.2677    1.0000 </r>
       <r>   -9.0369    1.0000 </r>
       <r>   -8.6078    1.0000 </r>
       <r>   -8.2735    1.0000 </r>
       <r>   -7.5656    1.0000 </r>
       <r>   -7.3552    1.0000 </r>
       <r>   -7.1457    1.0000 </r>
       <r>   -6.5652    1.0000 </r>
       <r>   -6.5422    1.0000 </r>
       <r>   -5.5884    1.0000 </r>
       <r>   -5.3795    1.0000 </r>
       <r>   -5.0766    1.0000 </r>
       <r>   -4.4290    1.0000 </r>
       <r>   -1.3024    0.0000 </r>
       <r>   -0.6958    0.0000 </r>
       <r>   -0.4206    0.0000 </r>
       <r>   -0.2846    0.0000 </r>
       <r>    1.0283    0.0000 </r>
       <r>    1.2179    0.0000 </r>
       <r>    1.8268    0.0000 </r>
       <r>    2.0448    0.0000 </r>
       <r>    2.1569    0.0000 </r>
       <r>    2.5527    0.0000 </r>
      </set>
      <set comment="kpoint 19">
       <r>  -21.8817    1.0000 </r>
       <r>  -21.1379    1.0000 </r>
       <r>  -20.7690    1.0000 </r>
       <r>  -19.6749    1.0000 </r>
       <r>  -18.9582    1.0000 </r>
       <r>  -17.9167    1.0000 </r>
       <r>  -17.5977    1.0000 </r>
       <r>  -17.5699    1.0000 </r>
       <r>  -16.6685    1.0000 </r>
       <r>  -15.2612    1.0000 </r>
       <r>  -15.2420    1.0000 </r>
       <r>  -14.6364    1.0000 </r>
       <r>  -13.7235    1.0000 </r>
       <r>  -12.8252    1.0000 </r>
       <r>  -11.9034    1.0000 </r>
       <r>  -11.6929    1.0000 </r>
       <r>  -11.3828    1.0000 </r>
       <r>  -10.0356    1.0000 </r>
       <r>   -9.9255    1.0000 </r>
       <r>   -9.9145    1.0000 </r>
       <r>   -9.7088    1.0000 </r>
       <r>   -9.6177    1.0000 </r>
       <r>   -9.2949    1.0000 </r>
       <r>   -9.2500    1.0000 </r>
       <r>   -9.0383    1.0000 </r>
       <r>   -8.6059    1.0000 </r>
       <r>   -8.2486    1.0000 </r>
       <r>   -7.5924    1.0000 </r>
       <r>   -7.3521    1.0000 </r>
       <r>   -7.1237    1.0000 </r>
       <r>   -6.5665    1.0000 </r>
       <r>   -6.5654    1.0000 </r>
       <r>   -5.5809    1.0000 </r>
       <r>   -5.3943    1.0000 </r>
       <r>   -5.0764    1.0000 </r>
       <r>   -4.4267    1.0000 </r>
       <r>   -1.3059    0.0000 </r>
       <r>   -0.6706    0.0000 </r>
       <r>   -0.4194    0.0000 </r>
       <r>   -0.2992    0.0000 </r>
       <r>    1.0282    0.0000 </r>
       <r>    1.2219    0.0000 </r>
       <r>    1.8268    0.0000 </r>
       <r>    2.0446    0.0000 </r>
       <r>    2.1569    0.0000 </r>
       <r>    2.3950    0.0000 </r>
      </set>
      <set comment="kpoint 20">
       <r>  -21.5670    1.0000 </r>
       <r>  -21.5571    1.0000 </r>
       <r>  -20.8217    1.0000 </r>
       <r>  -19.7267    1.0000 </r>
       <r>  -18.3132    1.0000 </r>
       <r>  -18.2989    1.0000 </r>
       <r>  -17.3144    1.0000 </r>
       <r>  -17.2997    1.0000 </r>
       <r>  -16.9922    1.0000 </r>
       <r>  -15.9268    1.0000 </r>
       <r>  -15.0187    1.0000 </r>
       <r>  -15.0079    1.0000 </r>
       <r>  -13.2883    1.0000 </r>
       <r>  -13.2769    1.0000 </r>
       <r>  -11.3710    1.0000 </r>
       <r>  -10.9922    1.0000 </r>
       <r>  -10.9825    1.0000 </r>
       <r>  -10.5008    1.0000 </r>
       <r>  -10.4914    1.0000 </r>
       <r>   -9.8917    1.0000 </r>
       <r>   -9.6495    1.0000 </r>
       <r>   -9.5404    1.0000 </r>
       <r>   -9.5324    1.0000 </r>
       <r>   -9.3459    1.0000 </r>
       <r>   -8.6663    1.0000 </r>
       <r>   -8.4030    1.0000 </r>
       <r>   -8.1198    1.0000 </r>
       <r>   -8.0994    1.0000 </r>
       <r>   -7.4072    1.0000 </r>
       <r>   -7.0808    1.0000 </r>
       <r>   -7.0567    1.0000 </r>
       <r>   -5.8623    1.0000 </r>
       <r>   -5.8501    1.0000 </r>
       <r>   -5.0751    1.0000 </r>
       <r>   -5.0138    1.0000 </r>
       <r>   -5.0034    1.0000 </r>
       <r>   -1.0725    0.0000 </r>
       <r>   -0.8334    0.0000 </r>
       <r>   -0.8222    0.0000 </r>
       <r>    0.4060    0.0000 </r>
       <r>    0.4178    0.0000 </r>
       <r>    1.4635    0.0000 </r>
       <r>    1.4646    0.0000 </r>
       <r>    2.2669    0.0000 </r>
       <r>    2.2673    0.0000 </r>
       <r>    2.6037    0.0000 </r>
      </set>
      <set comment="kpoint 21">
       <r>  -21.5687    1.0000 </r>
       <r>  -21.5558    1.0000 </r>
       <r>  -20.8213    1.0000 </r>
       <r>  -19.7261    1.0000 </r>
       <r>  -18.3156    1.0000 </r>
       <r>  -18.2969    1.0000 </r>
       <r>  -17.3181    1.0000 </r>
       <r>  -17.2982    1.0000 </r>
       <r>  -16.9831    1.0000 </r>
       <r>  -15.9480    1.0000 </r>
       <r>  -15.0157    1.0000 </r>
       <r>  -14.9981    1.0000 </r>
       <r>  -13.2911    1.0000 </r>
       <r>  -13.2720    1.0000 </r>
       <r>  -11.3492    1.0000 </r>
       <r>  -10.9977    1.0000 </r>
       <r>  -10.9793    1.0000 </r>
       <r>  -10.5113    1.0000 </r>
       <r>  -10.4946    1.0000 </r>
       <r>   -9.9157    1.0000 </r>
       <r>   -9.6239    1.0000 </r>
       <r>   -9.5409    1.0000 </r>
       <r>   -9.5304    1.0000 </r>
       <r>   -9.3285    1.0000 </r>
       <r>   -8.6680    1.0000 </r>
       <r>   -8.4314    1.0000 </r>
       <r>   -8.1473    1.0000 </r>
       <r>   -8.1223    1.0000 </r>
       <r>   -7.4106    1.0000 </r>
       <r>   -7.0584    1.0000 </r>
       <r>   -7.0237    1.0000 </r>
       <r>   -5.8640    1.0000 </r>
       <r>   -5.8473    1.0000 </r>
       <r>   -5.0557    1.0000 </r>
       <r>   -5.0230    1.0000 </r>
       <r>   -5.0053    1.0000 </r>
       <r>   -1.1018    0.0000 </r>
       <r>   -0.8308    0.0000 </r>
       <r>   -0.8081    0.0000 </r>
       <r>    0.4004    0.0000 </r>
       <r>    0.4200    0.0000 </r>
       <r>    1.4634    0.0000 </r>
       <r>    1.4649    0.0000 </r>
       <r>    2.2670    0.0000 </r>
       <r>    2.2675    0.0000 </r>
       <r>    2.6037    0.0000 </r>
      </set>
      <set comment="kpoint 22">
       <r>  -21.5700    1.0000 </r>
       <r>  -21.5544    1.0000 </r>
       <r>  -20.8214    1.0000 </r>
       <r>  -19.7263    1.0000 </r>
       <r>  -18.3175    1.0000 </r>
       <r>  -18.2949    1.0000 </r>
       <r>  -17.3197    1.0000 </r>
       <r>  -17.2962    1.0000 </r>
       <r>  -16.9851    1.0000 </r>
       <r>  -15.9424    1.0000 </r>
       <r>  -15.0197    1.0000 </r>
       <r>  -14.9975    1.0000 </r>
       <r>  -13.2940    1.0000 </r>
       <r>  -13.2696    1.0000 </r>
       <r>  -11.3553    1.0000 </r>
       <r>  -11.0003    1.0000 </r>
       <r>  -10.9757    1.0000 </r>
       <r>  -10.5116    1.0000 </r>
       <r>  -10.4906    1.0000 </r>
       <r>   -9.9091    1.0000 </r>
       <r>   -9.6310    1.0000 </r>
       <r>   -9.5422    1.0000 </r>
       <r>   -9.5295    1.0000 </r>
       <r>   -9.3331    1.0000 </r>
       <r>   -8.6675    1.0000 </r>
       <r>   -8.4233    1.0000 </r>
       <r>   -8.1444    1.0000 </r>
       <r>   -8.1124    1.0000 </r>
       <r>   -7.4097    1.0000 </r>
       <r>   -7.0684    1.0000 </r>
       <r>   -7.0282    1.0000 </r>
       <r>   -5.8660    1.0000 </r>
       <r>   -5.8455    1.0000 </r>
       <r>   -5.0615    1.0000 </r>
       <r>   -5.0240    1.0000 </r>
       <r>   -5.0008    1.0000 </r>
       <r>   -1.0941    0.0000 </r>
       <r>   -0.8364    0.0000 </r>
       <r>   -0.8069    0.0000 </r>
       <r>    0.3980    0.0000 </r>
       <r>    0.4233    0.0000 </r>
       <r>    1.4633    0.0000 </r>
       <r>    1.4650    0.0000 </r>
       <r>    2.2669    0.0000 </r>
       <r>    2.2675    0.0000 </r>
       <r>    2.4884    0.0000 </r>
      </set>
      <set comment="kpoint 23">
       <r>  -21.6155    1.0000 </r>
       <r>  -21.2515    1.0000 </r>
       <r>  -21.2360    1.0000 </r>
       <r>  -19.0711    1.0000 </r>
       <r>  -19.0495    1.0000 </r>
       <r>  -18.3556    1.0000 </r>
       <r>  -17.0984    1.0000 </r>
       <r>  -17.0807    1.0000 </r>
       <r>  -16.7099    1.0000 </r>
       <r>  -15.6803    1.0000 </r>
       <r>  -15.6247    1.0000 </r>
       <r>  -15.6004    1.0000 </r>
       <r>  -12.9154    1.0000 </r>
       <r>  -12.2763    1.0000 </r>
       <r>  -12.2547    1.0000 </r>
       <r>  -11.3573    1.0000 </r>
       <r>  -10.5627    1.0000 </r>
       <r>  -10.5538    1.0000 </r>
       <r>  -10.5325    1.0000 </r>
       <r>   -9.8319    1.0000 </r>
       <r>   -9.8099    1.0000 </r>
       <r>   -9.5989    1.0000 </r>
       <r>   -9.1673    1.0000 </r>
       <r>   -9.1547    1.0000 </r>
       <r>   -8.8445    1.0000 </r>
       <r>   -8.8007    1.0000 </r>
       <r>   -7.8793    1.0000 </r>
       <r>   -7.7079    1.0000 </r>
       <r>   -7.6606    1.0000 </r>
       <r>   -7.0863    1.0000 </r>
       <r>   -6.6742    1.0000 </r>
       <r>   -6.6546    1.0000 </r>
       <r>   -5.8945    1.0000 </r>
       <r>   -5.0172    1.0000 </r>
       <r>   -4.9961    1.0000 </r>
       <r>   -4.6700    1.0000 </r>
       <r>   -1.2322    0.0000 </r>
       <r>   -1.0376    0.0000 </r>
       <r>   -1.0065    0.0000 </r>
       <r>    0.5308    0.0000 </r>
       <r>    1.3916    0.0000 </r>
       <r>    1.4685    0.0000 </r>
       <r>    1.4938    0.0000 </r>
       <r>    1.8992    0.0000 </r>
       <r>    1.9010    0.0000 </r>
       <r>    2.1940    0.0000 </r>
      </set>
      <set comment="kpoint 24">
       <r>  -21.6157    1.0000 </r>
       <r>  -21.2485    1.0000 </r>
       <r>  -21.2388    1.0000 </r>
       <r>  -19.0668    1.0000 </r>
       <r>  -19.0534    1.0000 </r>
       <r>  -18.3558    1.0000 </r>
       <r>  -17.0926    1.0000 </r>
       <r>  -17.0825    1.0000 </r>
       <r>  -16.7173    1.0000 </r>
       <r>  -15.6648    1.0000 </r>
       <r>  -15.6243    1.0000 </r>
       <r>  -15.6132    1.0000 </r>
       <r>  -12.9287    1.0000 </r>
       <r>  -12.2609    1.0000 </r>
       <r>  -12.2500    1.0000 </r>
       <r>  -11.3425    1.0000 </r>
       <r>  -10.5730    1.0000 </r>
       <r>  -10.5599    1.0000 </r>
       <r>  -10.5505    1.0000 </r>
       <r>   -9.8198    1.0000 </r>
       <r>   -9.8095    1.0000 </r>
       <r>   -9.5984    1.0000 </r>
       <r>   -9.1651    1.0000 </r>
       <r>   -9.1573    1.0000 </r>
       <r>   -8.8298    1.0000 </r>
       <r>   -8.8082    1.0000 </r>
       <r>   -7.9007    1.0000 </r>
       <r>   -7.6995    1.0000 </r>
       <r>   -7.6781    1.0000 </r>
       <r>   -7.0619    1.0000 </r>
       <r>   -6.6728    1.0000 </r>
       <r>   -6.6608    1.0000 </r>
       <r>   -5.8899    1.0000 </r>
       <r>   -5.0044    1.0000 </r>
       <r>   -4.9953    1.0000 </r>
       <r>   -4.6834    1.0000 </r>
       <r>   -1.2115    0.0000 </r>
       <r>   -1.0389    0.0000 </r>
       <r>   -1.0275    0.0000 </r>
       <r>    0.5196    0.0000 </r>
       <r>    1.3917    0.0000 </r>
       <r>    1.4811    0.0000 </r>
       <r>    1.4953    0.0000 </r>
       <r>    1.8995    0.0000 </r>
       <r>    1.9006    0.0000 </r>
       <r>    2.1940    0.0000 </r>
      </set>
      <set comment="kpoint 25">
       <r>  -21.6155    1.0000 </r>
       <r>  -21.2502    1.0000 </r>
       <r>  -21.2374    1.0000 </r>
       <r>  -19.0694    1.0000 </r>
       <r>  -19.0515    1.0000 </r>
       <r>  -18.3554    1.0000 </r>
       <r>  -17.0975    1.0000 </r>
       <r>  -17.0833    1.0000 </r>
       <r>  -16.7068    1.0000 </r>
       <r>  -15.6872    1.0000 </r>
       <r>  -15.6191    1.0000 </r>
       <r>  -15.6005    1.0000 </r>
       <r>  -12.9105    1.0000 </r>
       <r>  -12.2780    1.0000 </r>
       <r>  -12.2605    1.0000 </r>
       <r>  -11.3627    1.0000 </r>
       <r>  -10.5586    1.0000 </r>
       <r>  -10.5482    1.0000 </r>
       <r>  -10.5295    1.0000 </r>
       <r>   -9.8319    1.0000 </r>
       <r>   -9.8146    1.0000 </r>
       <r>   -9.5991    1.0000 </r>
       <r>   -9.1661    1.0000 </r>
       <r>   -9.1557    1.0000 </r>
       <r>   -8.8412    1.0000 </r>
       <r>   -8.8071    1.0000 </r>
       <r>   -7.8705    1.0000 </r>
       <r>   -7.7007    1.0000 </r>
       <r>   -7.6652    1.0000 </r>
       <r>   -7.0951    1.0000 </r>
       <r>   -6.6716    1.0000 </r>
       <r>   -6.6555    1.0000 </r>
       <r>   -5.8961    1.0000 </r>
       <r>   -5.0173    1.0000 </r>
       <r>   -5.0010    1.0000 </r>
       <r>   -4.6650    1.0000 </r>
       <r>   -1.2401    0.0000 </r>
       <r>   -1.0296    0.0000 </r>
       <r>   -1.0062    0.0000 </r>
       <r>    0.5349    0.0000 </r>
       <r>    1.3916    0.0000 </r>
       <r>    1.4684    0.0000 </r>
       <r>    1.4888    0.0000 </r>
       <r>    1.8994    0.0000 </r>
       <r>    1.9009    0.0000 </r>
       <r>    2.1940    0.0000 </r>
      </set>
     </set>
    </set>
   </array>
  </eigenvalues>
  <separator name="orbital magnetization" >
   <v name="MAGDIPOLOUT">      0.00000000      0.00000000      0.00000000</v>
  </separator>
  <dos>
   <i name="efermi">     -2.75517921 </i>
   <total>
    <array>
     <dimension dim="1">gridpoints</dimension>
     <dimension dim="2">spin</dimension>
     <field>energy</field>
     <field>total</field>
     <field>integrated</field>
     <set>
      <set comment="spin 1">
       <r>   -23.5114     0.0000     0.0000 </r>
       <r>   -23.4193     0.0000     0.0000 </r>
       <r>   -23.3273     0.0000     0.0000 </r>
       <r>   -23.2352     0.0000     0.0000 </r>
       <r>   -23.1431     0.0000     0.0000 </r>
       <r>   -23.0511     0.0000     0.0000 </r>
       <r>   -22.9590     0.0000     0.0000 </r>
       <r>   -22.8670     0.0000     0.0000 </r>
       <r>   -22.7749     0.0000     0.0000 </r>
       <r>   -22.6828     0.0000     0.0000 </r>
       <r>   -22.5908     0.0000     0.0000 </r>
       <r>   -22.4987     0.0000     0.0000 </r>
       <r>   -22.4067     0.0000     0.0000 </r>
       <r>   -22.3146     0.0236     0.0022 </r>
       <r>   -22.2225     1.1018     0.1036 </r>
       <r>   -22.1305     2.3660     0.3214 </r>
       <r>   -22.0384     3.5656     0.6497 </r>
       <r>   -21.9464     1.5378     0.7912 </r>
       <r>   -21.8543     4.0196     1.1613 </r>
       <r>   -21.7622     2.8377     1.4225 </r>
       <r>   -21.6702     1.1180     1.5254 </r>
       <r>   -21.5781     3.8576     1.8806 </r>
       <r>   -21.4861     3.8905     2.2387 </r>
       <r>   -21.3940     1.6567     2.3913 </r>
       <r>   -21.3019     1.3445     2.5150 </r>
       <r>   -21.2099     4.2367     2.9051 </r>
       <r>   -21.1178     4.6190     3.3303 </r>
       <r>   -21.0258     1.5137     3.4696 </r>
       <r>   -20.9337     1.1226     3.5730 </r>
       <r>   -20.8416     2.3742     3.7916 </r>
       <r>   -20.7496     5.5234     4.3000 </r>
       <r>   -20.6575     2.1375     4.4968 </r>
       <r>   -20.5655     4.2572     4.8887 </r>
       <r>   -20.4734     0.5437     4.9388 </r>
       <r>   -20.3813     0.5381     4.9883 </r>
       <r>   -20.2893     5.1543     5.4628 </r>
       <r>   -20.1972     4.6730     5.8930 </r>
       <r>   -20.1052     2.8978     6.1598 </r>
       <r>   -20.0131     1.1675     6.2673 </r>
       <r>   -19.9210     3.9813     6.6338 </r>
       <r>   -19.8290     0.2141     6.6535 </r>
       <r>   -19.7369     1.3561     6.7784 </r>
       <r>   -19.6449     7.5707     7.4753 </r>
       <r>   -19.5528     2.6648     7.7206 </r>
       <r>   -19.4607     4.0793     8.0962 </r>
       <r>   -19.3687     0.2937     8.1232 </r>
       <r>   -19.2766     1.8390     8.2925 </r>
       <r>   -19.1846     3.3941     8.6050 </r>
       <r>   -19.0925     1.0824     8.7046 </r>
       <r>   -19.0004     4.6734     9.1348 </r>
       <r>   -18.9084     5.7957     9.6684 </r>
       <r>   -18.8163     2.0537     9.8575 </r>
       <r>   -18.7243     4.0680    10.2320 </r>
       <r>   -18.6322     1.0257    10.3264 </r>
       <r>   -18.5401     0.0494    10.3309 </r>
       <r>   -18.4481     3.0267    10.6096 </r>
       <r>   -18.3560     4.0083    10.9786 </r>
       <r>   -18.2640     5.5520    11.4897 </r>
       <r>   -18.1719     2.5521    11.7246 </r>
       <r>   -18.0798     4.2006    12.1113 </r>
       <r>   -17.9878     1.9702    12.2927 </r>
       <r>   -17.8957     3.7894    12.6416 </r>
       <r>   -17.8037     1.4513    12.7752 </r>
       <r>   -17.7116     0.0067    12.7758 </r>
       <r>   -17.6195     1.7811    12.9398 </r>
       <r>   -17.5275     8.6474    13.7358 </r>
       <r>   -17.4354     4.9997    14.1961 </r>
       <r>   -17.3434     1.4144    14.3263 </r>
       <r>   -17.2513     4.7960    14.7678 </r>
       <r>   -17.1592     2.3716    14.9862 </r>
       <r>   -17.0672     3.8370    15.3394 </r>
       <r>   -16.9751     3.0806    15.6230 </r>
       <r>   -16.8831     0.9914    15.7143 </r>
       <r>   -16.7910     1.5384    15.8559 </r>
       <r>   -16.6989     8.7314    16.6597 </r>
       <r>   -16.6069     5.5006    17.1661 </r>
       <r>   -16.5148     0.1909    17.1837 </r>
       <r>   -16.4228     0.0000    17.1837 </r>
       <r>   -16.3307     0.0000    17.1837 </r>
       <r>   -16.2386     0.0418    17.1875 </r>
       <r>   -16.1466     1.7283    17.3466 </r>
       <r>   -16.0545     1.1494    17.4524 </r>
       <r>   -15.9625     4.8102    17.8953 </r>
       <r>   -15.8704     2.8304    18.1558 </r>
       <r>   -15.7783     0.5752    18.2088 </r>
       <r>   -15.6863     3.2371    18.5068 </r>
       <r>   -15.5942     5.2921    18.9940 </r>
       <r>   -15.5022     1.6105    19.1423 </r>
       <r>   -15.4101     0.0689    19.1486 </r>
       <r>   -15.3180     1.6508    19.3006 </r>
       <r>   -15.2260     9.8841    20.2105 </r>
       <r>   -15.1339     3.4667    20.5297 </r>
       <r>   -15.0419     1.0160    20.6232 </r>
       <r>   -14.9498     4.8768    21.0721 </r>
       <r>   -14.8577     4.4282    21.4798 </r>
       <r>   -14.7657     1.3276    21.6020 </r>
       <r>   -14.6736     2.8242    21.8620 </r>
       <r>   -14.5816     8.4695    22.6417 </r>
       <r>   -14.4895     1.0091    22.7346 </r>
       <r>   -14.3974     0.1036    22.7442 </r>
       <r>   -14.3054     3.7485    23.0893 </r>
       <r>   -14.2133     4.1733    23.4735 </r>
       <r>   -14.1213     4.4143    23.8798 </r>
       <r>   -14.0292     0.9424    23.9666 </r>
       <r>   -13.9371     3.3566    24.2756 </r>
       <r>   -13.8451     1.8765    24.4484 </r>
       <r>   -13.7530     1.2676    24.5650 </r>
       <r>   -13.6610     3.9894    24.9323 </r>
       <r>   -13.5689     2.3249    25.1463 </r>
       <r>   -13.4768     4.2971    25.5419 </r>
       <r>   -13.3848     1.4410    25.6746 </r>
       <r>   -13.2927     2.4498    25.9001 </r>
       <r>   -13.2007     3.6697    26.2379 </r>
       <r>   -13.1086     0.0761    26.2450 </r>
       <r>   -13.0165     0.8664    26.3247 </r>
       <r>   -12.9245     9.2906    27.1800 </r>
       <r>   -12.8324     5.1236    27.6517 </r>
       <r>   -12.7404     3.2752    27.9532 </r>
       <r>   -12.6483     0.3694    27.9872 </r>
       <r>   -12.5562     2.1248    28.1828 </r>
       <r>   -12.4642     0.2681    28.2075 </r>
       <r>   -12.3721     1.5901    28.3539 </r>
       <r>   -12.2801     7.8990    29.0811 </r>
       <r>   -12.1880     8.7124    29.8831 </r>
       <r>   -12.0959     3.0031    30.1596 </r>
       <r>   -12.0039     0.0493    30.1642 </r>
       <r>   -11.9118     1.9148    30.3404 </r>
       <r>   -11.8198     3.3795    30.6516 </r>
       <r>   -11.7277     3.6682    30.9892 </r>
       <r>   -11.6356     6.4552    31.5835 </r>
       <r>   -11.5436     0.5335    31.6326 </r>
       <r>   -11.4515     0.2385    31.6546 </r>
       <r>   -11.3595     6.4683    32.2501 </r>
       <r>   -11.2674     6.0597    32.8079 </r>
       <r>   -11.1753     3.3835    33.1194 </r>
       <r>   -11.0833     5.5103    33.6267 </r>
       <r>   -10.9912     4.7397    34.0630 </r>
       <r>   -10.8992     2.8224    34.3228 </r>
       <r>   -10.8071     0.0400    34.3265 </r>
       <r>   -10.7150     0.0054    34.3270 </r>
       <r>   -10.6230     1.5785    34.4723 </r>
       <r>   -10.5309    10.9198    35.4776 </r>
       <r>   -10.4389    10.6197    36.4553 </r>
       <r>   -10.3468     2.8839    36.7208 </r>
       <r>   -10.2547     5.9373    37.2673 </r>
       <r>   -10.1627     2.0585    37.4569 </r>
       <r>   -10.0706     4.3077    37.8534 </r>
       <r>    -9.9786     4.9513    38.3092 </r>
       <r>    -9.8865    10.8208    39.3054 </r>
       <r>    -9.7944     9.9863    40.2247 </r>
       <r>    -9.7024     6.2590    40.8009 </r>
       <r>    -9.6103     8.7225    41.6039 </r>
       <r>    -9.5183     8.8897    42.4223 </r>
       <r>    -9.4262     5.5075    42.9293 </r>
       <r>    -9.3341     3.8170    43.2807 </r>
       <r>    -9.2421    10.3103    44.2299 </r>
       <r>    -9.1500    12.0055    45.3351 </r>
       <r>    -9.0580    14.8445    46.7017 </r>
       <r>    -8.9659     6.8491    47.3323 </r>
       <r>    -8.8738     3.1417    47.6215 </r>
       <r>    -8.7818    12.3034    48.7541 </r>
       <r>    -8.6897     6.8903    49.3885 </r>
       <r>    -8.5977     7.4487    50.0742 </r>
       <r>    -8.5056     7.0047    50.7190 </r>
       <r>    -8.4135     8.1222    51.4668 </r>
       <r>    -8.3215     3.3492    51.7751 </r>
       <r>    -8.2294     4.0000    52.1433 </r>
       <r>    -8.1374     5.5966    52.6586 </r>
       <r>    -8.0453    13.6905    53.9189 </r>
       <r>    -7.9532     5.3357    54.4101 </r>
       <r>    -7.8612     4.9536    54.8661 </r>
       <r>    -7.7691     1.2059    54.9772 </r>
       <r>    -7.6771     8.3636    55.7471 </r>
       <r>    -7.5850     7.0465    56.3958 </r>
       <r>    -7.4929     5.1275    56.8679 </r>
       <r>    -7.4009     2.9731    57.1416 </r>
       <r>    -7.3088     7.3315    57.8165 </r>
       <r>    -7.2168     2.3214    58.0302 </r>
       <r>    -7.1247     9.9618    58.9473 </r>
       <r>    -7.0326     7.7244    59.6584 </r>
       <r>    -6.9406     3.5687    59.9869 </r>
       <r>    -6.8485     3.5881    60.3172 </r>
       <r>    -6.7565     0.1507    60.3311 </r>
       <r>    -6.6644     4.3204    60.7289 </r>
       <r>    -6.5723    10.5306    61.6983 </r>
       <r>    -6.4803     8.8297    62.5112 </r>
       <r>    -6.3882     4.1159    62.8901 </r>
       <r>    -6.2962     4.0614    63.2640 </r>
       <r>    -6.2041     1.7415    63.4243 </r>
       <r>    -6.1120     4.9664    63.8815 </r>
       <r>    -6.0200     4.8753    64.3303 </r>
       <r>    -5.9279     2.8219    64.5901 </r>
       <r>    -5.8359     7.9147    65.3187 </r>
       <r>    -5.7438     7.1503    65.9770 </r>
       <r>    -5.6517     3.4645    66.2959 </r>
       <r>    -5.5597     3.7857    66.6445 </r>
       <r>    -5.4676     1.4798    66.7807 </r>
       <r>    -5.3756     3.1916    67.0745 </r>
       <r>    -5.2835     2.0861    67.2666 </r>
       <r>    -5.1914     1.5283    67.4073 </r>
       <r>    -5.0994     3.2569    67.7071 </r>
       <r>    -5.0073    15.5730    69.1407 </r>
       <r>    -4.9153     6.1719    69.7089 </r>
       <r>    -4.8232     0.0581    69.7143 </r>
       <r>    -4.7311     0.1428    69.7274 </r>
       <r>    -4.6391     2.0500    69.9162 </r>
       <r>    -4.5470     0.4708    69.9595 </r>
       <r>    -4.4550     1.4290    70.0911 </r>
       <r>    -4.3629     3.9516    70.4548 </r>
       <r>    -4.2708     5.0549    70.9202 </r>
       <r>    -4.1788     2.8244    71.1802 </r>
       <r>    -4.0867     0.0376    71.1837 </r>
       <r>    -3.9947     0.0113    71.1847 </r>
       <r>    -3.9026     1.2242    71.2974 </r>
       <r>    -3.8105     1.4063    71.4269 </r>
       <r>    -3.7185     0.0184    71.4286 </r>
       <r>    -3.6264     0.0149    71.4299 </r>
       <r>    -3.5344     2.1998    71.6325 </r>
       <r>    -3.4423     3.0553    71.9137 </r>
       <r>    -3.3502     0.0503    71.9184 </r>
       <r>    -3.2582     0.0000    71.9184 </r>
       <r>    -3.1661     0.0000    71.9184 </r>
       <r>    -3.0741     0.0000    71.9184 </r>
       <r>    -2.9820     0.0000    71.9184 </r>
       <r>    -2.8899     0.0005    71.9184 </r>
       <r>    -2.7979     0.2507    71.9415 </r>
       <r>    -2.7058     1.3336    72.0643 </r>
       <r>    -2.6138     0.1884    72.0816 </r>
       <r>    -2.5217     0.0002    72.0816 </r>
       <r>    -2.4296     0.0000    72.0816 </r>
       <r>    -2.3376     0.0000    72.0816 </r>
       <r>    -2.2455     0.0000    72.0816 </r>
       <r>    -2.1535     0.0001    72.0816 </r>
       <r>    -2.0614     0.3101    72.1102 </r>
       <r>    -1.9693     4.1229    72.4897 </r>
       <r>    -1.8773     0.8861    72.5713 </r>
       <r>    -1.7852     0.0563    72.5765 </r>
       <r>    -1.6932     1.7544    72.7380 </r>
       <r>    -1.6011     0.8466    72.8160 </r>
       <r>    -1.5090     0.0041    72.8163 </r>
       <r>    -1.4170     0.0034    72.8166 </r>
       <r>    -1.3249     1.9793    72.9989 </r>
       <r>    -1.2329    11.3354    74.0424 </r>
       <r>    -1.1408     2.8465    74.3044 </r>
       <r>    -1.0487     3.5216    74.6286 </r>
       <r>    -0.9567     5.7706    75.1599 </r>
       <r>    -0.8646     1.8408    75.3293 </r>
       <r>    -0.7726     4.2019    75.7162 </r>
       <r>    -0.6805     3.3967    76.0289 </r>
       <r>    -0.5884     4.7654    76.4676 </r>
       <r>    -0.4964     2.9898    76.7428 </r>
       <r>    -0.4043     3.7511    77.0881 </r>
       <r>    -0.3123     3.3385    77.3955 </r>
       <r>    -0.2202     5.1842    77.8727 </r>
       <r>    -0.1281     0.9351    77.9588 </r>
       <r>    -0.0361     0.0042    77.9592 </r>
       <r>     0.0560     0.5487    78.0097 </r>
       <r>     0.1480     4.2086    78.3972 </r>
       <r>     0.2401     1.5498    78.5399 </r>
       <r>     0.3322     4.1212    78.9193 </r>
       <r>     0.4242     3.6315    79.2536 </r>
       <r>     0.5163     3.1154    79.5404 </r>
       <r>     0.6083     3.6489    79.8763 </r>
       <r>     0.7004     1.3344    79.9991 </r>
       <r>     0.7925     5.8318    80.5360 </r>
       <r>     0.8845     5.9142    81.0805 </r>
       <r>     0.9766     1.4973    81.2183 </r>
       <r>     1.0686     4.2747    81.6118 </r>
       <r>     1.1607     1.8273    81.7801 </r>
       <r>     1.2528     5.6621    82.3013 </r>
       <r>     1.3448     2.1059    82.4952 </r>
       <r>     1.4369     6.9482    83.1348 </r>
       <r>     1.5289    13.9904    84.4228 </r>
       <r>     1.6210     4.5247    84.8393 </r>
       <r>     1.7131     4.6575    85.2681 </r>
       <r>     1.8051     3.3572    85.5772 </r>
       <r>     1.8972     8.8076    86.3880 </r>
       <r>     1.9892     8.8964    87.2070 </r>
       <r>     2.0813     9.1914    88.0532 </r>
       <r>     2.1734     6.8255    88.6815 </r>
       <r>     2.2654     7.0195    89.3277 </r>
       <r>     2.3575     7.3169    90.0013 </r>
       <r>     2.4496     4.9554    90.4575 </r>
       <r>     2.5416     3.6570    90.7942 </r>
       <r>     2.6337     3.5397    91.1200 </r>
       <r>     2.7257     2.3451    91.3359 </r>
       <r>     2.8178     4.5785    91.7574 </r>
       <r>     2.9099     2.5049    91.9880 </r>
       <r>     3.0019     0.1299    92.0000 </r>
       <r>     3.0940     0.0000    92.0000 </r>
       <r>     3.1860     0.0000    92.0000 </r>
       <r>     3.2781     0.0000    92.0000 </r>
       <r>     3.3702     0.0000    92.0000 </r>
       <r>     3.4622     0.0000    92.0000 </r>
       <r>     3.5543     0.0000    92.0000 </r>
       <r>     3.6463     0.0000    92.0000 </r>
       <r>     3.7384     0.0000    92.0000 </r>
       <r>     3.8305     0.0000    92.0000 </r>
       <r>     3.9225     0.0000    92.0000 </r>
       <r>     4.0146     0.0000    92.0000 </r>
       <r>     4.1066     0.0000    92.0000 </r>
      </set>
     </set>
    </array>
   </total>
  </dos>
 </calculation>
 <structure name="finalpos" >
  <crystal>
   <varray name="basis" >
    <v>       7.40170591       0.00000000       0.00000000 </v>
    <v>      -3.70085295       6.41006527       0.00000000 </v>
    <v>       0.00000000       0.00000000      20.00000000 </v>
   </varray>
   <i name="volume">    948.90835877 </i>
   <varray name="rec_basis" >
    <v>       0.13510399       0.07800233       0.00000000 </v>
    <v>       0.00000000       0.15600465       0.00000000 </v>
    <v>       0.00000000       0.00000000       0.05000000 </v>
   </varray>
  </crystal>
  <varray name="positions" >
   <v>       0.99921998       0.99843995       0.50000000 </v>
   <v>       0.33198229       0.00000000       0.50000000 </v>
   <v>       0.66666667       0.00000000       0.50000000 </v>
   <v>       0.00000000       0.33333333       0.50000000 </v>
   <v>       0.33333333       0.33333333       0.50000000 </v>
   <v>       0.66666667       0.33333333       0.50000000 </v>
   <v>       0.00000000       0.66666667       0.50000000 </v>
   <v>       0.33333333       0.66666667       0.50000000 </v>
   <v>       0.66666667       0.66666667       0.50000000 </v>
   <v>       0.22222222       0.11111111       0.50000000 </v>
   <v>       0.55555556       0.11111111       0.50000000 </v>
   <v>       0.88888889       0.11111111       0.50000000 </v>
   <v>       0.22222222       0.44444444       0.50000000 </v>
   <v>       0.55555556       0.44444444       0.50000000 </v>
   <v>       0.88888889       0.44444444       0.50000000 </v>
   <v>       0.22222222       0.77777778       0.50000000 </v>
   <v>       0.55555556       0.77777778       0.50000000 </v>
   <v>       0.88888889       0.77777778       0.50000000 </v>
  </varray>
 </structure>
</modeling>
