<?xml version="1.0" encoding="ISO-8859-1"?>
<modeling>
 <generator>
  <i name="program" type="string">vasp </i>
  <i name="version" type="string">6.4.1  </i>
  <i name="subversion" type="string">05Apr23 (build Feb 12 2025 00:37:39) complex                          parallel </i>
  <i name="platform" type="string">LinuxIFC </i>
  <i name="date" type="string">2025 02 14 </i>
  <i name="time" type="string">05:37:59 </i>
 </generator>
 <incar>
  <i type="string" name="SYSTEM">SCF</i>
  <i type="int" name="ISTART">     0</i>
  <i type="int" name="ICHARG">     2</i>
  <i type="int" name="NELM">    60</i>
  <i type="int" name="NELMIN">     6</i>
  <i name="EDIFF">      0.00000100</i>
  <i name="EDIFFG">     -0.00000100</i>
  <i name="ENCUT">    600.00000000</i>
  <i type="string" name="LREAL">Auto</i>
  <i type="int" name="ISMEAR">     0</i>
  <i name="SIGMA">      0.05000000</i>
  <i type="logical" name="LWAVE"> F  </i>
  <i type="logical" name="LCHARG"> F  </i>
 </incar>
 <primitive_cell>
  <structure name="primitive_cell" >
   <crystal>
    <varray name="basis" >
     <v>       7.40170591       0.00000000       0.00000000 </v>
     <v>      -3.70085295       6.41006527       0.00000000 </v>
     <v>       0.00000000       0.00000000      20.00000000 </v>
    </varray>
    <i name="volume">    948.90835877 </i>
    <varray name="rec_basis" >
     <v>       0.13510399       0.07800233       0.00000000 </v>
     <v>       0.00000000       0.15600465       0.00000000 </v>
     <v>       0.00000000       0.00000000       0.05000000 </v>
    </varray>
   </crystal>
   <varray name="positions" >
    <v>       0.99786894       0.99843995       0.50000000 </v>
    <v>       0.33333333       0.00000000       0.50000000 </v>
    <v>       0.66666667       0.00000000       0.50000000 </v>
    <v>       1.00000000       0.33333333       0.50000000 </v>
    <v>       0.33333333       0.33333333       0.50000000 </v>
    <v>       0.66666667       0.33333333       0.50000000 </v>
    <v>       1.00000000       0.66666667       0.50000000 </v>
    <v>       0.33333333       0.66666667       0.50000000 </v>
    <v>       0.66666667       0.66666667       0.50000000 </v>
    <v>       0.22222222       0.11111111       0.50000000 </v>
    <v>       0.55555556       0.11111111       0.50000000 </v>
    <v>       0.88888889       0.11111111       0.50000000 </v>
    <v>       0.22222222       0.44444444       0.50000000 </v>
    <v>       0.55555556       0.44444444       0.50000000 </v>
    <v>       0.88888889       0.44444444       0.50000000 </v>
    <v>       0.22222222       0.77777778       0.50000000 </v>
    <v>       0.55555556       0.77777778       0.50000000 </v>
    <v>       0.88888889       0.77777778       0.50000000 </v>
   </varray>
  </structure>
  <varray name="primitive_index" >
   <v type="int" >        1 </v>
   <v type="int" >        2 </v>
   <v type="int" >        3 </v>
   <v type="int" >        4 </v>
   <v type="int" >        5 </v>
   <v type="int" >        6 </v>
   <v type="int" >        7 </v>
   <v type="int" >        8 </v>
   <v type="int" >        9 </v>
   <v type="int" >       10 </v>
   <v type="int" >       11 </v>
   <v type="int" >       12 </v>
   <v type="int" >       13 </v>
   <v type="int" >       14 </v>
   <v type="int" >       15 </v>
   <v type="int" >       16 </v>
   <v type="int" >       17 </v>
   <v type="int" >       18 </v>
  </varray>
 </primitive_cell>
 <kpoints>
  <generation param="Gamma">
   <v type="int" name="divisions">       7        7        1 </v>
   <v name="usershift">      0.00000000       0.00000000       0.00000000 </v>
   <v name="genvec1">      0.14285714       0.00000000       0.00000000 </v>
   <v name="genvec2">      0.00000000       0.14285714       0.00000000 </v>
   <v name="genvec3">      0.00000000       0.00000000       1.00000000 </v>
   <v name="shift">      0.00000000       0.00000000       0.00000000 </v>
  </generation>
  <varray name="kpointlist" >
   <v>       0.00000000       0.00000000       0.00000000 </v>
   <v>       0.14285714       0.00000000       0.00000000 </v>
   <v>       0.00000000       0.14285714       0.00000000 </v>
   <v>      -0.14285714       0.14285714       0.00000000 </v>
   <v>       0.28571429       0.00000000       0.00000000 </v>
   <v>       0.00000000       0.28571429       0.00000000 </v>
   <v>      -0.28571429       0.28571429       0.00000000 </v>
   <v>       0.42857143       0.00000000       0.00000000 </v>
   <v>       0.00000000       0.42857143       0.00000000 </v>
   <v>      -0.42857143       0.42857143       0.00000000 </v>
   <v>       0.14285714       0.14285714       0.00000000 </v>
   <v>      -0.14285714       0.28571429       0.00000000 </v>
   <v>      -0.28571429       0.14285714       0.00000000 </v>
   <v>       0.28571429       0.14285714       0.00000000 </v>
   <v>      -0.14285714       0.42857143       0.00000000 </v>
   <v>      -0.42857143       0.28571429       0.00000000 </v>
   <v>      -0.28571429       0.42857143       0.00000000 </v>
   <v>       0.14285714       0.28571429       0.00000000 </v>
   <v>       0.42857143      -0.14285714       0.00000000 </v>
   <v>       0.42857143       0.14285714       0.00000000 </v>
   <v>      -0.14285714      -0.42857143       0.00000000 </v>
   <v>       0.42857143       0.42857143       0.00000000 </v>
   <v>       0.28571429       0.28571429       0.00000000 </v>
   <v>      -0.28571429      -0.42857143       0.00000000 </v>
   <v>       0.42857143       0.28571429       0.00000000 </v>
  </varray>
  <varray name="weights" >
   <v>       0.02040816 </v>
   <v>       0.04081633 </v>
   <v>       0.04081633 </v>
   <v>       0.04081633 </v>
   <v>       0.04081633 </v>
   <v>       0.04081633 </v>
   <v>       0.04081633 </v>
   <v>       0.04081633 </v>
   <v>       0.04081633 </v>
   <v>       0.04081633 </v>
   <v>       0.04081633 </v>
   <v>       0.04081633 </v>
   <v>       0.04081633 </v>
   <v>       0.04081633 </v>
   <v>       0.04081633 </v>
   <v>       0.04081633 </v>
   <v>       0.04081633 </v>
   <v>       0.04081633 </v>
   <v>       0.04081633 </v>
   <v>       0.04081633 </v>
   <v>       0.04081633 </v>
   <v>       0.04081633 </v>
   <v>       0.04081633 </v>
   <v>       0.04081633 </v>
   <v>       0.04081633 </v>
  </varray>
 </kpoints>
 <parameters>
  <separator name="general" >
   <i type="string" name="SYSTEM">SCF</i>
   <i type="logical" name="LCOMPAT"> F  </i>
  </separator>
  <separator name="electronic" >
   <i type="string" name="PREC">normal</i>
   <i name="ENMAX">    600.00000000</i>
   <i name="ENAUG">    644.87300000</i>
   <i name="EDIFF">      0.00000100</i>
   <i type="int" name="IALGO">    38</i>
   <i type="int" name="IWAVPR">    10</i>
   <i type="int" name="NBANDS">    46</i>
   <i type="int" name="NBANDSLOW">    -1</i>
   <i type="int" name="NBANDSHIGH">    -1</i>
   <i name="NELECT">     72.00000000</i>
   <i type="int" name="TURBO">     0</i>
   <i type="int" name="IRESTART">     0</i>
   <i type="int" name="NREBOOT">     0</i>
   <i type="int" name="NMIN">     0</i>
   <i name="EREF">      0.00000000</i>
   <separator name="electronic smearing" >
    <i type="int" name="ISMEAR">     0</i>
    <i name="SIGMA">      0.05000000</i>
    <i name="KSPACING">      0.50000000</i>
    <i type="logical" name="KGAMMA"> T  </i>
    <i type="logical" name="KBLOWUP"> T  </i>
   </separator>
   <separator name="electronic projectors" >
    <i type="logical" name="LREAL"> T  </i>
    <v name="ROPT">     -0.00050000</v>
    <i type="int" name="LMAXPAW">  -100</i>
    <i type="int" name="LMAXMIX">     2</i>
    <i type="logical" name="NLSPLINE"> F  </i>
   </separator>
   <separator name="electronic startup" >
    <i type="int" name="ISTART">     0</i>
    <i type="int" name="ICHARG">     2</i>
    <i type="int" name="INIWAV">     1</i>
   </separator>
   <separator name="electronic spin" >
    <i type="int" name="ISPIN">     1</i>
    <i type="logical" name="LNONCOLLINEAR"> F  </i>
    <v name="MAGMOM">      1.00000000      1.00000000      1.00000000      1.00000000      1.00000000      1.00000000      1.00000000      1.00000000      1.00000000      1.00000000      1.00000000      1.00000000      1.00000000      1.00000000      1.00000000      1.00000000      1.00000000      1.00000000</v>
    <i name="NUPDOWN">     -1.00000000</i>
    <i type="logical" name="LSORBIT"> F  </i>
    <v name="SAXIS">      0.00000000      0.00000000      1.00000000</v>
    <i type="logical" name="LSPIRAL"> F  </i>
    <v name="QSPIRAL">      0.00000000      0.00000000      0.00000000</v>
    <i type="logical" name="LZEROZ"> F  </i>
   </separator>
   <separator name="electronic exchange-correlation" >
    <i type="logical" name="LASPH"> F  </i>
    <i type="logical" name="LMETAGGA"> F  </i>
   </separator>
   <separator name="electronic convergence" >
    <i type="int" name="NELM">    60</i>
    <i type="int" name="NELMDL">    -5</i>
    <i type="int" name="NELMIN">     6</i>
    <i name="ENINI">    600.00000000</i>
    <separator name="electronic convergence detail" >
     <i type="logical" name="LDIAG"> T  </i>
     <i type="logical" name="LSUBROT"> F  </i>
     <i name="WEIMIN">      0.00000000</i>
     <i name="EBREAK">      0.00000000</i>
     <i name="DEPER">      0.30000000</i>
     <i type="int" name="NRMM">     4</i>
     <i name="TIME">      0.40000000</i>
    </separator>
   </separator>
   <separator name="electronic mixer" >
    <i name="AMIX">      0.40000000</i>
    <i name="BMIX">      1.00000000</i>
    <i name="AMIN">      0.10000000</i>
    <i name="AMIX_MAG">      1.60000000</i>
    <i name="BMIX_MAG">      1.00000000</i>
    <separator name="electronic mixer details" >
     <i type="int" name="IMIX">     4</i>
     <i type="logical" name="MIXFIRST"> F  </i>
     <i type="int" name="MAXMIX">   -45</i>
     <i name="WC">    100.00000000</i>
     <i type="int" name="INIMIX">     1</i>
     <i type="int" name="MIXPRE">     1</i>
     <i type="int" name="MREMOVE">     5</i>
    </separator>
   </separator>
   <separator name="electronic dipolcorrection" >
    <i type="logical" name="LDIPOL"> F  </i>
    <i type="logical" name="LMONO"> F  </i>
    <i type="int" name="IDIPOL">     0</i>
    <i name="EPSILON">      1.00000000</i>
    <v name="DIPOL">   -100.00000000   -100.00000000   -100.00000000</v>
    <i name="EFIELD">      0.00000000</i>
   </separator>
  </separator>
  <separator name="grids" >
   <i type="int" name="NGX">    48</i>
   <i type="int" name="NGY">    48</i>
   <i type="int" name="NGZ">   120</i>
   <i type="int" name="NGXF">    96</i>
   <i type="int" name="NGYF">    96</i>
   <i type="int" name="NGZF">   240</i>
   <i type="logical" name="ADDGRID"> F  </i>
  </separator>
  <separator name="ionic" >
   <i type="int" name="NSW">     0</i>
   <i type="int" name="IBRION">    -1</i>
   <i type="int" name="MDALGO">     0</i>
   <i type="int" name="ISIF">     2</i>
   <i name="PSTRESS">      0.00000000</i>
   <i name="EDIFFG">     -0.00000100</i>
   <i type="int" name="NFREE">     0</i>
   <i name="POTIM">      0.50000000</i>
   <i name="SMASS">     -3.00000000</i>
   <i name="SCALEE">      1.00000000</i>
  </separator>
  <separator name="ionic md" >
   <i name="TEBEG">      0.00010000</i>
   <i name="TEEND">      0.00010000</i>
   <i type="int" name="NBLOCK">     1</i>
   <i type="int" name="KBLOCK">     1</i>
   <i type="int" name="NPACO">   256</i>
   <i name="APACO">     10.00000000</i>
  </separator>
  <separator name="symmetry" >
   <i type="int" name="ISYM">     2</i>
   <i name="SYMPREC">      0.00001000</i>
  </separator>
  <separator name="dos" >
   <i type="int" name="LORBIT">     0</i>
   <v name="RWIGS">     -1.00000000</v>
   <i type="int" name="NEDOS">   301</i>
   <i name="EMIN">     10.00000000</i>
   <i name="EMAX">    -10.00000000</i>
   <i name="EFERMI">      0.00000000</i>
  </separator>
  <separator name="writing" >
   <i type="int" name="NWRITE">     2</i>
   <i type="logical" name="LWAVE"> F  </i>
   <i type="logical" name="LDOWNSAMPLE"> F  </i>
   <i type="logical" name="LCHARG"> F  </i>
   <i type="logical" name="LPARD"> F  </i>
   <i type="logical" name="LVTOT"> F  </i>
   <i type="logical" name="LVHAR"> F  </i>
   <i type="logical" name="LELF"> F  </i>
   <i type="logical" name="LOPTICS"> F  </i>
   <v name="STM">      0.00000000      0.00000000      0.00000000      0.00000000      0.00000000      0.00000000      0.00000000</v>
  </separator>
  <separator name="performance" >
   <i type="int" name="NPAR">     2</i>
   <i type="int" name="NSIM">     4</i>
   <i type="int" name="NBLK">    -1</i>
   <i type="logical" name="LPLANE"> T  </i>
   <i type="logical" name="LSCALAPACK"> T  </i>
   <i type="logical" name="LSCAAWARE"> F  </i>
   <i type="logical" name="LSCALU"> F  </i>
   <i type="logical" name="LASYNC"> F  </i>
   <i type="logical" name="LORBITALREAL"> F  </i>
  </separator>
  <separator name="miscellaneous" >
   <i type="int" name="IDIOT">     3</i>
   <i type="int" name="PHON_NSTRUCT">    -1</i>
   <i type="logical" name="LMUSIC"> F  </i>
   <v name="POMASS">     12.01100000</v>
   <v name="DARWINR">      0.00000000</v>
   <v name="DARWINV">      1.00000000</v>
   <i type="logical" name="LCORR"> T  </i>
  </separator>
  <i type="logical" name="GGA_COMPAT"> T  </i>
  <i type="logical" name="LBERRY"> F  </i>
  <i type="int" name="ICORELEVEL">     0</i>
  <i type="logical" name="LDAU"> F  </i>
  <i type="int" name="I_CONSTRAINED_M">     0</i>
  <separator name="electronic exchange-correlation" >
   <i type="string" name="GGA">--</i>
   <i type="int" name="VOSKOWN">     0</i>
   <i type="logical" name="LHFCALC"> F  </i>
   <i type="string" name="PRECFOCK"></i>
   <i type="logical" name="LSYMGRAD"> F  </i>
   <i type="logical" name="LHFONE"> F  </i>
   <i type="logical" name="LRHFCALC"> F  </i>
   <i type="logical" name="LTHOMAS"> F  </i>
   <i type="logical" name="LMODELHF"> F  </i>
   <i type="logical" name="LFOCKACE"> F  </i>
   <i name="ENCUT4O">     -1.00000000</i>
   <i type="int" name="EXXOEP">     0</i>
   <i type="int" name="FOURORBIT">     0</i>
   <i name="AEXX">      0.00000000</i>
   <i name="HFALPHA">      0.00000000</i>
   <i name="MCALPHA">      0.00000000</i>
   <i name="ALDAX">      1.00000000</i>
   <i name="AGGAX">      1.00000000</i>
   <i name="ALDAC">      1.00000000</i>
   <i name="AGGAC">      1.00000000</i>
   <i type="int" name="NKREDX">     1</i>
   <i type="int" name="NKREDY">     1</i>
   <i type="int" name="NKREDZ">     1</i>
   <i type="logical" name="SHIFTRED"> F  </i>
   <i type="logical" name="ODDONLY"> F  </i>
   <i type="logical" name="EVENONLY"> F  </i>
   <i type="int" name="LMAXFOCK">     0</i>
   <i type="int" name="NMAXFOCKAE">     0</i>
   <i type="logical" name="LFOCKAEDFT"> F  </i>
   <i name="HFSCREEN">      0.00000000</i>
   <i name="HFSCREENC">      0.00000000</i>
   <i type="int" name="NBANDSGWLOW">     0</i>
  </separator>
  <separator name="vdW DFT" >
   <i type="logical" name="LUSE_VDW"> F  </i>
   <i type="int" name="IVDW_NL">     1</i>
   <i type="logical" name="LSPIN_VDW"> F  </i>
   <i name="Zab_VDW">     -0.84910000</i>
   <i name="PARAM1">      0.12340000</i>
   <i name="PARAM2">      1.00000000</i>
   <i name="PARAM3">      0.00000000</i>
  </separator>
  <separator name="model GW" >
   <i type="int" name="MODEL_GW">     0</i>
   <i name="MODEL_EPS0">     31.63027863</i>
   <i name="MODEL_ALPHA">      1.00000000</i>
  </separator>
  <separator name="linear response parameters" >
   <i type="logical" name="LEPSILON"> F  </i>
   <i type="logical" name="LRPA"> F  </i>
   <i type="logical" name="LNABLA"> F  </i>
   <i type="logical" name="LVEL"> F  </i>
   <i name="CSHIFT">      0.10000000</i>
   <i name="OMEGAMAX">     -1.00000000</i>
   <i name="DEG_THRESHOLD">      0.00200000</i>
   <i name="RTIME">     -0.10000000</i>
   <i name="WPLASMAI">      0.00000000</i>
   <v name="DFIELD">      0.00000000      0.00000000      0.00000000</v>
   <v name="WPLASMA">      0.00000000      0.00000000      0.00000000      0.00000000      0.00000000      0.00000000      0.00000000      0.00000000      0.00000000</v>
  </separator>
  <separator name="orbital magnetization" >
   <i type="logical" name="NUCIND"> F  </i>
   <v name="MAGPOS">      0.00000000      0.00000000      0.00000000</v>
   <i type="logical" name="LNICSALL"> T  </i>
   <i type="logical" name="ORBITALMAG"> F  </i>
   <i type="logical" name="LMAGBLOCH"> F  </i>
   <i type="logical" name="LCHIMAG"> F  </i>
   <i type="logical" name="LGAUGE"> T  </i>
   <i type="int" name="MAGATOM">     0</i>
   <v name="MAGDIPOL">      0.00000000      0.00000000      0.00000000</v>
   <v name="AVECCONST">      0.00000000      0.00000000      0.00000000</v>
  </separator>
  <separator name="response functions" >
   <i type="logical" name="LALL_IN_ONE"> F  </i>
   <i type="int" name="IALL_IN_ONE">    -1</i>
   <i type="int" name="NBANDS_WAVE">    -1</i>
   <i type="logical" name="LFINITE_TEMPERATURE"> F  </i>
   <i type="logical" name="LADDER"> F  </i>
   <i type="logical" name="LRPAFORCE"> F  </i>
   <i type="logical" name="LFXC"> F  </i>
   <i type="logical" name="LHARTREE"> T  </i>
   <i type="int" name="IBSE">     0</i>
   <v type="int" name="KPOINT">    -1     0     0     0</v>
   <i type="logical" name="LTCTC"> F  </i>
   <i type="logical" name="LTCTE"> F  </i>
   <i type="logical" name="LTETE"> F  </i>
   <i type="logical" name="LTRIPLET"> F  </i>
   <i type="logical" name="LFXCEPS"> F  </i>
   <i type="logical" name="LFXHEG"> F  </i>
   <i type="int" name="NATURALO">     2</i>
   <i type="logical" name="LHOLEGF"> F  </i>
   <i type="logical" name="L2ORDER"> F  </i>
   <i type="logical" name="LDMP1"> F  </i>
   <i type="logical" name="LMP2LT"> F  </i>
   <i type="logical" name="LSMP2LT"> F  </i>
   <i type="logical" name="LGWLF"> F  </i>
   <i name="ENCUTGW">     -1.60000002</i>
   <i name="ENCUTGWSOFT">     -1.60000002</i>
   <i name="ENCUTLF">     -1.00000000</i>
   <i type="logical" name="LESF_SPLINES"> F  </i>
   <i type="int" name="LMAXMP2">    -1</i>
   <i name="SCISSOR">      0.00000000</i>
   <i type="int" name="NOMEGA">     0</i>
   <i type="int" name="NOMEGAR">     0</i>
   <i type="int" name="NBANDSGW">    -1</i>
   <i type="int" name="NBANDSO">    -1</i>
   <i type="int" name="NBANDSV">    -1</i>
   <i type="int" name="NELMGW">     1</i>
   <i type="int" name="NELMHF">     1</i>
   <i type="int" name="DIM">     3</i>
   <i type="int" name="IESPILON">     4</i>
   <i type="int" name="ANTIRES">     0</i>
   <i name="OMEGAMAX">    -30.00000000</i>
   <i name="OMEGAMIN">    -30.00000000</i>
   <i name="OMEGATL">   -200.00000000</i>
   <i type="int" name="OMEGAGRID">     0</i>
   <i name="CSHIFT">     -0.10000000</i>
   <i type="logical" name="LSELFENERGY"> F  </i>
   <i type="logical" name="LSPECTRAL"> F  </i>
   <i type="logical" name="LSPECTRALGW"> F  </i>
   <i type="logical" name="LSINGLES"> F  </i>
   <i type="logical" name="LFERMIGW"> F  </i>
   <i type="logical" name="ODDONLYGW"> F  </i>
   <i type="logical" name="EVENONLYGW"> F  </i>
   <i type="int" name="NKREDLFX">     1</i>
   <i type="int" name="NKREDLFY">     1</i>
   <i type="int" name="NKREDLFZ">     1</i>
   <i type="int" name="MAXMEM">  2800</i>
   <i type="int" name="TELESCOPE">     0</i>
   <i type="int" name="NTAUPAR">    -1</i>
   <i type="int" name="NOMEGAPAR">    -1</i>
   <i name="DAMP_NEWTON">      0.80000001</i>
   <i name="LAMBDA">      1.00000000</i>
  </separator>
  <separator name="External order field" >
   <i name="OFIELD_KAPPA">      0.00000000</i>
   <v name="OFIELD_K">      0.00000000      0.00000000      0.00000000</v>
   <i name="OFIELD_Q6_NEAR">      0.00000000</i>
   <i name="OFIELD_Q6_FAR">      0.00000000</i>
   <i name="OFIELD_A">      0.00000000</i>
  </separator>
  <separator name="optional k-points parameters" >
   <i type="int" name="KPOINTS_OPT_MODE">     1</i>
   <i type="logical" name="LKPOINTS_OPT"> F  </i>
  </separator>
 </parameters>
 <atominfo>
  <atoms>      18 </atoms>
  <types>       1 </types>
  <array name="atoms" >
   <dimension dim="1">ion</dimension>
   <field type="string">element</field>
   <field type="int">atomtype</field>
   <set>
    <rc><c>C </c><c>   1</c></rc>
    <rc><c>C </c><c>   1</c></rc>
    <rc><c>C </c><c>   1</c></rc>
    <rc><c>C </c><c>   1</c></rc>
    <rc><c>C </c><c>   1</c></rc>
    <rc><c>C </c><c>   1</c></rc>
    <rc><c>C </c><c>   1</c></rc>
    <rc><c>C </c><c>   1</c></rc>
    <rc><c>C </c><c>   1</c></rc>
    <rc><c>C </c><c>   1</c></rc>
    <rc><c>C </c><c>   1</c></rc>
    <rc><c>C </c><c>   1</c></rc>
    <rc><c>C </c><c>   1</c></rc>
    <rc><c>C </c><c>   1</c></rc>
    <rc><c>C </c><c>   1</c></rc>
    <rc><c>C </c><c>   1</c></rc>
    <rc><c>C </c><c>   1</c></rc>
    <rc><c>C </c><c>   1</c></rc>
   </set>
  </array>
  <array name="atomtypes" >
   <dimension dim="1">type</dimension>
   <field type="int">atomspertype</field>
   <field type="string">element</field>
   <field>mass</field>
   <field>valence</field>
   <field type="string">pseudopotential</field>
   <set>
    <rc><c>  18</c><c>C </c><c>     12.01100000</c><c>      4.00000000</c><c>  PAW_PBE C 08Apr2002                   </c></rc>
   </set>
  </array>
 </atominfo>
 <structure name="initialpos" >
  <crystal>
   <varray name="basis" >
    <v>       7.40170591       0.00000000       0.00000000 </v>
    <v>      -3.70085295       6.41006527       0.00000000 </v>
    <v>       0.00000000       0.00000000      20.00000000 </v>
   </varray>
   <i name="volume">    948.90835877 </i>
   <varray name="rec_basis" >
    <v>       0.13510399       0.07800233       0.00000000 </v>
    <v>       0.00000000       0.15600465       0.00000000 </v>
    <v>       0.00000000       0.00000000       0.05000000 </v>
   </varray>
  </crystal>
  <varray name="positions" >
   <v>       0.99786894       0.99843995       0.50000000 </v>
   <v>       0.33333333       0.00000000       0.50000000 </v>
   <v>       0.66666667       0.00000000       0.50000000 </v>
   <v>       0.00000000       0.33333333       0.50000000 </v>
   <v>       0.33333333       0.33333333       0.50000000 </v>
   <v>       0.66666667       0.33333333       0.50000000 </v>
   <v>       0.00000000       0.66666667       0.50000000 </v>
   <v>       0.33333333       0.66666667       0.50000000 </v>
   <v>       0.66666667       0.66666667       0.50000000 </v>
   <v>       0.22222222       0.11111111       0.50000000 </v>
   <v>       0.55555556       0.11111111       0.50000000 </v>
   <v>       0.88888889       0.11111111       0.50000000 </v>
   <v>       0.22222222       0.44444444       0.50000000 </v>
   <v>       0.55555556       0.44444444       0.50000000 </v>
   <v>       0.88888889       0.44444444       0.50000000 </v>
   <v>       0.22222222       0.77777778       0.50000000 </v>
   <v>       0.55555556       0.77777778       0.50000000 </v>
   <v>       0.88888889       0.77777778       0.50000000 </v>
  </varray>
 </structure>
 <calculation>
  <scstep>
   <time name="dav">    6.01    6.25</time>
   <time name="total">    6.10    6.34</time>
   <energy>
    <i name="alphaZ">     28.04858418 </i>
    <i name="ewald">  11638.87666378 </i>
    <i name="hartreedc"> -13553.18234112 </i>
    <i name="XCdc">    237.17775056 </i>
    <i name="pawpsdc">   1953.39683484 </i>
    <i name="pawaedc">  -1963.64613940 </i>
    <i name="eentropy">     -0.00834558 </i>
    <i name="bandstr">   -257.78986428 </i>
    <i name="atom">   2648.70517965 </i>
    <i name="e_fr_energy">    731.57832264 </i>
    <i name="e_wo_entrp">    731.58666822 </i>
    <i name="e_0_energy">    731.58249543 </i>
   </energy>
  </scstep>
  <scstep>
   <time name="dav">    7.96    8.27</time>
   <time name="total">    7.96    8.27</time>
   <energy>
    <i name="e_fr_energy">    -23.96968625 </i>
    <i name="e_wo_entrp">    -23.96949572 </i>
    <i name="e_0_energy">    -23.96959099 </i>
   </energy>
  </scstep>
  <scstep>
   <time name="dav">    6.45    5.47</time>
   <time name="total">    6.45    5.47</time>
   <energy>
    <i name="e_fr_energy">   -172.27846466 </i>
    <i name="e_wo_entrp">   -172.27716610 </i>
    <i name="e_0_energy">   -172.27781538 </i>
   </energy>
  </scstep>
  <scstep>
   <time name="dav">    6.37    6.60</time>
   <time name="total">    6.37    6.60</time>
   <energy>
    <i name="e_fr_energy">   -177.34723322 </i>
    <i name="e_wo_entrp">   -177.34520386 </i>
    <i name="e_0_energy">   -177.34621854 </i>
   </energy>
  </scstep>
  <scstep>
   <time name="dav">    7.26    7.56</time>
   <time name="total">    7.53    7.84</time>
   <energy>
    <i name="e_fr_energy">   -177.48407357 </i>
    <i name="e_wo_entrp">   -177.48204254 </i>
    <i name="e_0_energy">   -177.48305806 </i>
   </energy>
  </scstep>
  <scstep>
   <time name="dav">    5.94    6.20</time>
   <time name="total">    6.29    6.56</time>
   <energy>
    <i name="e_fr_energy">   -169.31645165 </i>
    <i name="e_wo_entrp">   -169.31435706 </i>
    <i name="e_0_energy">   -169.31540435 </i>
   </energy>
  </scstep>
  <scstep>
   <time name="dav">    5.94    6.18</time>
   <time name="total">    6.28    6.54</time>
   <energy>
    <i name="e_fr_energy">   -166.14839513 </i>
    <i name="e_wo_entrp">   -166.14627222 </i>
    <i name="e_0_energy">   -166.14733368 </i>
   </energy>
  </scstep>
  <scstep>
   <time name="dav">    6.17    5.16</time>
   <time name="total">    6.52    5.52</time>
   <energy>
    <i name="e_fr_energy">   -166.08549386 </i>
    <i name="e_wo_entrp">   -166.08338365 </i>
    <i name="e_0_energy">   -166.08443875 </i>
   </energy>
  </scstep>
  <scstep>
   <time name="dav">    6.70    6.95</time>
   <time name="total">    7.05    7.32</time>
   <energy>
    <i name="e_fr_energy">   -166.07264739 </i>
    <i name="e_wo_entrp">   -166.07053294 </i>
    <i name="e_0_energy">   -166.07159016 </i>
   </energy>
  </scstep>
  <scstep>
   <time name="dav">    5.79    6.01</time>
   <time name="total">    6.14    6.37</time>
   <energy>
    <i name="e_fr_energy">   -166.05427422 </i>
    <i name="e_wo_entrp">   -166.05215669 </i>
    <i name="e_0_energy">   -166.05321546 </i>
   </energy>
  </scstep>
  <scstep>
   <time name="dav">    5.77    5.99</time>
   <time name="total">    6.13    6.36</time>
   <energy>
    <i name="e_fr_energy">   -166.05726346 </i>
    <i name="e_wo_entrp">   -166.05514805 </i>
    <i name="e_0_energy">   -166.05620575 </i>
   </energy>
  </scstep>
  <scstep>
   <time name="dav">    5.92    6.15</time>
   <time name="total">    6.27    6.52</time>
   <energy>
    <i name="e_fr_energy">   -166.06206399 </i>
    <i name="e_wo_entrp">   -166.05994915 </i>
    <i name="e_0_energy">   -166.06100657 </i>
   </energy>
  </scstep>
  <scstep>
   <time name="dav">    5.78    4.82</time>
   <time name="total">    6.13    5.19</time>
   <energy>
    <i name="e_fr_energy">   -166.06613607 </i>
    <i name="e_wo_entrp">   -166.06402052 </i>
    <i name="e_0_energy">   -166.06507829 </i>
   </energy>
  </scstep>
  <scstep>
   <time name="dav">    5.64    5.86</time>
   <time name="total">    5.99    6.22</time>
   <energy>
    <i name="e_fr_energy">   -166.07009540 </i>
    <i name="e_wo_entrp">   -166.06797964 </i>
    <i name="e_0_energy">   -166.06903752 </i>
   </energy>
  </scstep>
  <scstep>
   <time name="dav">    5.92    6.14</time>
   <time name="total">    6.28    6.52</time>
   <energy>
    <i name="e_fr_energy">   -166.07152971 </i>
    <i name="e_wo_entrp">   -166.06941396 </i>
    <i name="e_0_energy">   -166.07047184 </i>
   </energy>
  </scstep>
  <scstep>
   <time name="dav">    5.94    6.17</time>
   <time name="total">    6.29    6.53</time>
   <energy>
    <i name="e_fr_energy">   -166.07166863 </i>
    <i name="e_wo_entrp">   -166.06955291 </i>
    <i name="e_0_energy">   -166.07061077 </i>
   </energy>
  </scstep>
  <scstep>
   <time name="dav">    5.73    5.95</time>
   <time name="total">    6.08    6.32</time>
   <energy>
    <i name="e_fr_energy">   -166.07188202 </i>
    <i name="e_wo_entrp">   -166.06976646 </i>
    <i name="e_0_energy">   -166.07082424 </i>
   </energy>
  </scstep>
  <scstep>
   <time name="dav">    5.11    4.12</time>
   <time name="total">    5.46    4.48</time>
   <energy>
    <i name="e_fr_energy">   -166.07193701 </i>
    <i name="e_wo_entrp">   -166.06982137 </i>
    <i name="e_0_energy">   -166.07087919 </i>
   </energy>
  </scstep>
  <scstep>
   <time name="dav">    5.02    5.21</time>
   <time name="total">    5.37    5.57</time>
   <energy>
    <i name="e_fr_energy">   -166.07197157 </i>
    <i name="e_wo_entrp">   -166.06985588 </i>
    <i name="e_0_energy">   -166.07091372 </i>
   </energy>
  </scstep>
  <scstep>
   <time name="dav">    4.86    5.05</time>
   <time name="total">    5.22    5.42</time>
   <energy>
    <i name="e_fr_energy">   -166.07199972 </i>
    <i name="e_wo_entrp">   -166.06988407 </i>
    <i name="e_0_energy">   -166.07094189 </i>
   </energy>
  </scstep>
  <scstep>
   <time name="dav">    3.94    4.09</time>
   <time name="total">    4.30    4.46</time>
   <energy>
    <i name="e_fr_energy">   -166.07200920 </i>
    <i name="e_wo_entrp">   -166.06989353 </i>
    <i name="e_0_energy">   -166.07095136 </i>
   </energy>
  </scstep>
  <scstep>
   <time name="dav">    3.88    4.03</time>
   <time name="total">    4.23    4.40</time>
   <energy>
    <i name="e_fr_energy">   -166.07201268 </i>
    <i name="e_wo_entrp">   -166.06989703 </i>
    <i name="e_0_energy">   -166.07095485 </i>
   </energy>
  </scstep>
  <scstep>
   <time name="dav">    3.99    4.14</time>
   <time name="total">    4.07    4.23</time>
   <energy>
    <i name="alphaZ">     28.04858418 </i>
    <i name="ewald">  11638.87666378 </i>
    <i name="hartreedc"> -13861.52527098 </i>
    <i name="XCdc">    247.81449951 </i>
    <i name="pawpsdc">   7452.96730932 </i>
    <i name="pawaedc">  -7465.23075231 </i>
    <i name="eentropy">     -0.00211565 </i>
    <i name="bandstr">   -855.72611064 </i>
    <i name="atom">   2648.70517965 </i>
    <i name="e_fr_energy">   -166.07201314 </i>
    <i name="e_wo_entrp">   -166.06989748 </i>
    <i name="e_0_energy">   -166.07095531 </i>
   </energy>
  </scstep>
  <structure>
   <crystal>
    <varray name="basis" >
     <v>       7.40170591       0.00000000       0.00000000 </v>
     <v>      -3.70085295       6.41006527       0.00000000 </v>
     <v>       0.00000000       0.00000000      20.00000000 </v>
    </varray>
    <i name="volume">    948.90835877 </i>
    <varray name="rec_basis" >
     <v>       0.13510399       0.07800233       0.00000000 </v>
     <v>       0.00000000       0.15600465       0.00000000 </v>
     <v>       0.00000000       0.00000000       0.05000000 </v>
    </varray>
   </crystal>
   <varray name="positions" >
    <v>       0.99786894       0.99843995       0.50000000 </v>
    <v>       0.33333333       0.00000000       0.50000000 </v>
    <v>       0.66666667       0.00000000       0.50000000 </v>
    <v>       0.00000000       0.33333333       0.50000000 </v>
    <v>       0.33333333       0.33333333       0.50000000 </v>
    <v>       0.66666667       0.33333333       0.50000000 </v>
    <v>       0.00000000       0.66666667       0.50000000 </v>
    <v>       0.33333333       0.66666667       0.50000000 </v>
    <v>       0.66666667       0.66666667       0.50000000 </v>
    <v>       0.22222222       0.11111111       0.50000000 </v>
    <v>       0.55555556       0.11111111       0.50000000 </v>
    <v>       0.88888889       0.11111111       0.50000000 </v>
    <v>       0.22222222       0.44444444       0.50000000 </v>
    <v>       0.55555556       0.44444444       0.50000000 </v>
    <v>       0.88888889       0.44444444       0.50000000 </v>
    <v>       0.22222222       0.77777778       0.50000000 </v>
    <v>       0.55555556       0.77777778       0.50000000 </v>
    <v>       0.88888889       0.77777778       0.50000000 </v>
   </varray>
  </structure>
  <varray name="forces" >
   <v>       0.58387259       0.59853617      -0.00000000 </v>
   <v>      -0.06275630       0.03735227       0.00000000 </v>
   <v>      -0.03686718       0.01137051       0.00000000 </v>
   <v>       0.02471467       0.01350520       0.00000000 </v>
   <v>      -0.01294779      -0.07588684      -0.00000000 </v>
   <v>      -0.02965374      -0.02997696      -0.00000000 </v>
   <v>       0.05133346      -0.01245289       0.00000000 </v>
   <v>      -0.02962750      -0.02997631      -0.00000000 </v>
   <v>      -0.04035008      -0.05122916      -0.00000000 </v>
   <v>      -0.24359535      -0.18674285      -0.00000000 </v>
   <v>       0.00067375       0.02454787       0.00000000 </v>
   <v>      -0.14837562      -0.08371034      -0.00000000 </v>
   <v>      -0.02138010       0.03107270      -0.00000000 </v>
   <v>       0.00810565      -0.00321363      -0.00000000 </v>
   <v>       0.02837341       0.01706643      -0.00000000 </v>
   <v>      -0.00523251      -0.03100735      -0.00000000 </v>
   <v>       0.04034376       0.01395485      -0.00000000 </v>
   <v>      -0.10663110      -0.24320967      -0.00000000 </v>
  </varray>
  <varray name="stress" >
   <v>      -0.21148320      -0.06272552       0.00000000 </v>
   <v>      -0.06272551      -0.06992131       0.00000000 </v>
   <v>       0.00000000       0.00000000      -0.56556229 </v>
  </varray>
  <energy>
   <i name="e_fr_energy">   -166.07201314 </i>
   <i name="e_wo_entrp">   -166.06989748 </i>
   <i name="e_0_energy">   -166.07095531 </i>
  </energy>
  <time name="totalsc">  143.70  144.42</time>
  <eigenvalues>
   <array>
    <dimension dim="1">band</dimension>
    <dimension dim="2">kpoint</dimension>
    <dimension dim="3">spin</dimension>
    <field>eigene</field>
    <field>occ</field>
    <set>
     <set comment="spin 1">
      <set comment="kpoint 1">
       <r>  -22.2560    1.0000 </r>
       <r>  -19.7012    1.0000 </r>
       <r>  -19.6784    1.0000 </r>
       <r>  -19.6750    1.0000 </r>
       <r>  -19.6726    1.0000 </r>
       <r>  -19.6708    1.0000 </r>
       <r>  -19.6426    1.0000 </r>
       <r>  -15.3581    1.0000 </r>
       <r>  -15.3467    1.0000 </r>
       <r>  -15.3407    1.0000 </r>
       <r>  -15.3179    1.0000 </r>
       <r>  -13.2932    1.0000 </r>
       <r>  -13.2864    1.0000 </r>
       <r>  -12.4042    1.0000 </r>
       <r>  -12.3887    1.0000 </r>
       <r>  -12.3755    1.0000 </r>
       <r>  -12.3737    1.0000 </r>
       <r>  -12.3651    1.0000 </r>
       <r>  -12.3403    1.0000 </r>
       <r>  -10.3600    1.0000 </r>
       <r>   -8.5620    1.0000 </r>
       <r>   -8.5285    1.0000 </r>
       <r>   -8.5240    1.0000 </r>
       <r>   -8.5235    1.0000 </r>
       <r>   -8.5180    1.0000 </r>
       <r>   -8.4850    1.0000 </r>
       <r>   -7.3949    1.0000 </r>
       <r>   -7.3733    1.0000 </r>
       <r>   -7.3726    1.0000 </r>
       <r>   -7.3704    1.0000 </r>
       <r>   -7.3695    1.0000 </r>
       <r>   -7.3450    1.0000 </r>
       <r>   -5.8074    1.0000 </r>
       <r>   -5.7608    1.0000 </r>
       <r>   -2.7750    0.7103 </r>
       <r>   -2.7577    0.5266 </r>
       <r>   -2.7553    0.4991 </r>
       <r>   -2.7330    0.2640 </r>
       <r>    0.5196    0.0000 </r>
       <r>    1.3118    0.0000 </r>
       <r>    1.6349    0.0000 </r>
       <r>    2.1124    0.0000 </r>
       <r>    2.1393    0.0000 </r>
       <r>    2.1434    0.0000 </r>
       <r>    2.1443    0.0000 </r>
       <r>    2.1464    0.0000 </r>
      </set>
      <set comment="kpoint 2">
       <r>  -22.2025    1.0000 </r>
       <r>  -20.3490    1.0000 </r>
       <r>  -19.9880    1.0000 </r>
       <r>  -19.9815    1.0000 </r>
       <r>  -19.2661    1.0000 </r>
       <r>  -19.2589    1.0000 </r>
       <r>  -18.9056    1.0000 </r>
       <r>  -16.0010    1.0000 </r>
       <r>  -15.9887    1.0000 </r>
       <r>  -14.9209    1.0000 </r>
       <r>  -14.9081    1.0000 </r>
       <r>  -13.5903    1.0000 </r>
       <r>  -12.9834    1.0000 </r>
       <r>  -12.9757    1.0000 </r>
       <r>  -12.9517    1.0000 </r>
       <r>  -12.9480    1.0000 </r>
       <r>  -11.7467    1.0000 </r>
       <r>  -11.7340    1.0000 </r>
       <r>  -11.1079    1.0000 </r>
       <r>  -10.2960    1.0000 </r>
       <r>   -8.8703    1.0000 </r>
       <r>   -8.8504    1.0000 </r>
       <r>   -8.8381    1.0000 </r>
       <r>   -8.5133    1.0000 </r>
       <r>   -8.4904    1.0000 </r>
       <r>   -8.1438    1.0000 </r>
       <r>   -8.1290    1.0000 </r>
       <r>   -7.7156    1.0000 </r>
       <r>   -7.7089    1.0000 </r>
       <r>   -6.9250    1.0000 </r>
       <r>   -6.9180    1.0000 </r>
       <r>   -6.5611    1.0000 </r>
       <r>   -5.9832    1.0000 </r>
       <r>   -5.9210    1.0000 </r>
       <r>   -3.5296    1.0000 </r>
       <r>   -3.5230    1.0000 </r>
       <r>   -2.0083    0.0000 </r>
       <r>   -2.0017    0.0000 </r>
       <r>    0.5922    0.0000 </r>
       <r>    0.8854    0.0000 </r>
       <r>    1.3854    0.0000 </r>
       <r>    1.4664    0.0000 </r>
       <r>    1.4745    0.0000 </r>
       <r>    1.7093    0.0000 </r>
       <r>    2.6300    0.0000 </r>
       <r>    2.7523    0.0000 </r>
      </set>
      <set comment="kpoint 3">
       <r>  -22.2025    1.0000 </r>
       <r>  -20.3496    1.0000 </r>
       <r>  -19.9920    1.0000 </r>
       <r>  -19.9764    1.0000 </r>
       <r>  -19.2704    1.0000 </r>
       <r>  -19.2544    1.0000 </r>
       <r>  -18.9061    1.0000 </r>
       <r>  -16.0042    1.0000 </r>
       <r>  -15.9874    1.0000 </r>
       <r>  -14.9206    1.0000 </r>
       <r>  -14.9042    1.0000 </r>
       <r>  -13.6033    1.0000 </r>
       <r>  -12.9783    1.0000 </r>
       <r>  -12.9664    1.0000 </r>
       <r>  -12.9601    1.0000 </r>
       <r>  -12.9442    1.0000 </r>
       <r>  -11.7396    1.0000 </r>
       <r>  -11.7230    1.0000 </r>
       <r>  -11.1242    1.0000 </r>
       <r>  -10.2960    1.0000 </r>
       <r>   -8.8795    1.0000 </r>
       <r>   -8.8588    1.0000 </r>
       <r>   -8.8187    1.0000 </r>
       <r>   -8.5242    1.0000 </r>
       <r>   -8.5040    1.0000 </r>
       <r>   -8.1261    1.0000 </r>
       <r>   -8.1217    1.0000 </r>
       <r>   -7.7216    1.0000 </r>
       <r>   -7.7076    1.0000 </r>
       <r>   -6.9306    1.0000 </r>
       <r>   -6.9169    1.0000 </r>
       <r>   -6.5537    1.0000 </r>
       <r>   -6.0220    1.0000 </r>
       <r>   -5.8819    1.0000 </r>
       <r>   -3.5341    1.0000 </r>
       <r>   -3.5199    1.0000 </r>
       <r>   -2.0122    0.0000 </r>
       <r>   -1.9961    0.0000 </r>
       <r>    0.5922    0.0000 </r>
       <r>    0.8672    0.0000 </r>
       <r>    1.3854    0.0000 </r>
       <r>    1.4665    0.0000 </r>
       <r>    1.4864    0.0000 </r>
       <r>    1.7093    0.0000 </r>
       <r>    2.6300    0.0000 </r>
       <r>    2.7551    0.0000 </r>
      </set>
      <set comment="kpoint 4">
       <r>  -22.2025    1.0000 </r>
       <r>  -20.3495    1.0000 </r>
       <r>  -19.9949    1.0000 </r>
       <r>  -19.9736    1.0000 </r>
       <r>  -19.2733    1.0000 </r>
       <r>  -19.2517    1.0000 </r>
       <r>  -18.9060    1.0000 </r>
       <r>  -16.0059    1.0000 </r>
       <r>  -15.9853    1.0000 </r>
       <r>  -14.9227    1.0000 </r>
       <r>  -14.9031    1.0000 </r>
       <r>  -13.6001    1.0000 </r>
       <r>  -12.9785    1.0000 </r>
       <r>  -12.9666    1.0000 </r>
       <r>  -12.9605    1.0000 </r>
       <r>  -12.9456    1.0000 </r>
       <r>  -11.7437    1.0000 </r>
       <r>  -11.7241    1.0000 </r>
       <r>  -11.1196    1.0000 </r>
       <r>  -10.2960    1.0000 </r>
       <r>   -8.8787    1.0000 </r>
       <r>   -8.8572    1.0000 </r>
       <r>   -8.8215    1.0000 </r>
       <r>   -8.5210    1.0000 </r>
       <r>   -8.5010    1.0000 </r>
       <r>   -8.1272    1.0000 </r>
       <r>   -8.1269    1.0000 </r>
       <r>   -7.7232    1.0000 </r>
       <r>   -7.7046    1.0000 </r>
       <r>   -6.9323    1.0000 </r>
       <r>   -6.9140    1.0000 </r>
       <r>   -6.5557    1.0000 </r>
       <r>   -6.0141    1.0000 </r>
       <r>   -5.8898    1.0000 </r>
       <r>   -3.5363    1.0000 </r>
       <r>   -3.5172    1.0000 </r>
       <r>   -2.0154    0.0000 </r>
       <r>   -1.9934    0.0000 </r>
       <r>    0.5922    0.0000 </r>
       <r>    0.8721    0.0000 </r>
       <r>    1.3854    0.0000 </r>
       <r>    1.4612    0.0000 </r>
       <r>    1.4886    0.0000 </r>
       <r>    1.7093    0.0000 </r>
       <r>    2.6300    0.0000 </r>
       <r>    2.7491    0.0000 </r>
      </set>
      <set comment="kpoint 5">
       <r>  -22.0419    1.0000 </r>
       <r>  -20.9265    1.0000 </r>
       <r>  -20.1964    1.0000 </r>
       <r>  -20.1900    1.0000 </r>
       <r>  -18.7591    1.0000 </r>
       <r>  -18.7517    1.0000 </r>
       <r>  -18.0632    1.0000 </r>
       <r>  -16.7499    1.0000 </r>
       <r>  -16.7393    1.0000 </r>
       <r>  -14.7471    1.0000 </r>
       <r>  -14.6318    1.0000 </r>
       <r>  -14.6200    1.0000 </r>
       <r>  -13.5077    1.0000 </r>
       <r>  -13.4974    1.0000 </r>
       <r>  -12.1852    1.0000 </r>
       <r>  -12.1790    1.0000 </r>
       <r>  -11.1128    1.0000 </r>
       <r>  -11.0986    1.0000 </r>
       <r>  -10.1049    1.0000 </r>
       <r>   -9.8494    1.0000 </r>
       <r>   -9.4991    1.0000 </r>
       <r>   -9.4827    1.0000 </r>
       <r>   -9.0489    1.0000 </r>
       <r>   -8.7928    1.0000 </r>
       <r>   -8.7619    1.0000 </r>
       <r>   -8.7408    1.0000 </r>
       <r>   -7.9468    1.0000 </r>
       <r>   -7.9400    1.0000 </r>
       <r>   -7.6853    1.0000 </r>
       <r>   -6.6027    1.0000 </r>
       <r>   -6.3798    1.0000 </r>
       <r>   -6.3730    1.0000 </r>
       <r>   -6.2363    1.0000 </r>
       <r>   -5.7718    1.0000 </r>
       <r>   -4.3016    1.0000 </r>
       <r>   -4.2948    1.0000 </r>
       <r>   -1.2871    0.0000 </r>
       <r>   -1.2805    0.0000 </r>
       <r>   -0.2243    0.0000 </r>
       <r>    0.7815    0.0000 </r>
       <r>    0.7890    0.0000 </r>
       <r>    0.8102    0.0000 </r>
       <r>    1.6061    0.0000 </r>
       <r>    1.9327    0.0000 </r>
       <r>    2.3340    0.0000 </r>
       <r>    2.8513    0.0000 </r>
      </set>
      <set comment="kpoint 6">
       <r>  -22.0420    1.0000 </r>
       <r>  -20.9270    1.0000 </r>
       <r>  -20.2004    1.0000 </r>
       <r>  -20.1848    1.0000 </r>
       <r>  -18.7635    1.0000 </r>
       <r>  -18.7474    1.0000 </r>
       <r>  -18.0627    1.0000 </r>
       <r>  -16.7540    1.0000 </r>
       <r>  -16.7372    1.0000 </r>
       <r>  -14.7595    1.0000 </r>
       <r>  -14.6303    1.0000 </r>
       <r>  -14.6149    1.0000 </r>
       <r>  -13.5042    1.0000 </r>
       <r>  -13.4901    1.0000 </r>
       <r>  -12.1933    1.0000 </r>
       <r>  -12.1770    1.0000 </r>
       <r>  -11.1010    1.0000 </r>
       <r>  -11.0839    1.0000 </r>
       <r>  -10.1047    1.0000 </r>
       <r>   -9.8688    1.0000 </r>
       <r>   -9.5081    1.0000 </r>
       <r>   -9.4883    1.0000 </r>
       <r>   -9.0306    1.0000 </r>
       <r>   -8.7911    1.0000 </r>
       <r>   -8.7770    1.0000 </r>
       <r>   -8.7580    1.0000 </r>
       <r>   -7.9528    1.0000 </r>
       <r>   -7.9388    1.0000 </r>
       <r>   -7.6609    1.0000 </r>
       <r>   -6.6365    1.0000 </r>
       <r>   -6.3853    1.0000 </r>
       <r>   -6.3717    1.0000 </r>
       <r>   -6.2012    1.0000 </r>
       <r>   -5.7599    1.0000 </r>
       <r>   -4.3063    1.0000 </r>
       <r>   -4.2926    1.0000 </r>
       <r>   -1.2907    0.0000 </r>
       <r>   -1.2735    0.0000 </r>
       <r>   -0.2475    0.0000 </r>
       <r>    0.7801    0.0000 </r>
       <r>    0.7998    0.0000 </r>
       <r>    0.8102    0.0000 </r>
       <r>    1.6062    0.0000 </r>
       <r>    1.9327    0.0000 </r>
       <r>    2.3341    0.0000 </r>
       <r>    2.8514    0.0000 </r>
      </set>
      <set comment="kpoint 7">
       <r>  -22.0420    1.0000 </r>
       <r>  -20.9269    1.0000 </r>
       <r>  -20.2033    1.0000 </r>
       <r>  -20.1820    1.0000 </r>
       <r>  -18.7663    1.0000 </r>
       <r>  -18.7446    1.0000 </r>
       <r>  -18.0629    1.0000 </r>
       <r>  -16.7562    1.0000 </r>
       <r>  -16.7347    1.0000 </r>
       <r>  -14.7559    1.0000 </r>
       <r>  -14.6329    1.0000 </r>
       <r>  -14.6142    1.0000 </r>
       <r>  -13.5071    1.0000 </r>
       <r>  -13.4897    1.0000 </r>
       <r>  -12.1955    1.0000 </r>
       <r>  -12.1736    1.0000 </r>
       <r>  -11.1060    1.0000 </r>
       <r>  -11.0862    1.0000 </r>
       <r>  -10.1047    1.0000 </r>
       <r>   -9.8633    1.0000 </r>
       <r>   -9.5079    1.0000 </r>
       <r>   -9.4853    1.0000 </r>
       <r>   -9.0351    1.0000 </r>
       <r>   -8.7916    1.0000 </r>
       <r>   -8.7723    1.0000 </r>
       <r>   -8.7543    1.0000 </r>
       <r>   -7.9544    1.0000 </r>
       <r>   -7.9358    1.0000 </r>
       <r>   -7.6671    1.0000 </r>
       <r>   -6.6281    1.0000 </r>
       <r>   -6.3870    1.0000 </r>
       <r>   -6.3689    1.0000 </r>
       <r>   -6.2100    1.0000 </r>
       <r>   -5.7631    1.0000 </r>
       <r>   -4.3083    1.0000 </r>
       <r>   -4.2899    1.0000 </r>
       <r>   -1.2943    0.0000 </r>
       <r>   -1.2707    0.0000 </r>
       <r>   -0.2414    0.0000 </r>
       <r>    0.7752    0.0000 </r>
       <r>    0.8022    0.0000 </r>
       <r>    0.8102    0.0000 </r>
       <r>    1.6061    0.0000 </r>
       <r>    1.9327    0.0000 </r>
       <r>    2.3341    0.0000 </r>
       <r>    2.8514    0.0000 </r>
      </set>
      <set comment="kpoint 8">
       <r>  -21.7752    1.0000 </r>
       <r>  -21.4025    1.0000 </r>
       <r>  -20.3009    1.0000 </r>
       <r>  -20.2946    1.0000 </r>
       <r>  -18.1623    1.0000 </r>
       <r>  -18.1545    1.0000 </r>
       <r>  -17.4856    1.0000 </r>
       <r>  -17.4765    1.0000 </r>
       <r>  -17.2314    1.0000 </r>
       <r>  -15.7358    1.0000 </r>
       <r>  -14.3300    1.0000 </r>
       <r>  -14.3199    1.0000 </r>
       <r>  -13.9584    1.0000 </r>
       <r>  -13.9485    1.0000 </r>
       <r>  -11.2609    1.0000 </r>
       <r>  -11.2517    1.0000 </r>
       <r>  -10.6175    1.0000 </r>
       <r>  -10.6018    1.0000 </r>
       <r>  -10.3304    1.0000 </r>
       <r>  -10.3183    1.0000 </r>
       <r>   -9.7882    1.0000 </r>
       <r>   -9.3489    1.0000 </r>
       <r>   -9.1549    1.0000 </r>
       <r>   -9.0853    1.0000 </r>
       <r>   -9.0677    1.0000 </r>
       <r>   -8.6316    1.0000 </r>
       <r>   -8.0632    1.0000 </r>
       <r>   -8.0564    1.0000 </r>
       <r>   -7.5213    1.0000 </r>
       <r>   -7.1851    1.0000 </r>
       <r>   -6.6811    1.0000 </r>
       <r>   -5.7495    1.0000 </r>
       <r>   -5.7430    1.0000 </r>
       <r>   -5.2086    1.0000 </r>
       <r>   -5.0495    1.0000 </r>
       <r>   -5.0420    1.0000 </r>
       <r>   -0.9540    0.0000 </r>
       <r>   -0.5897    0.0000 </r>
       <r>   -0.5826    0.0000 </r>
       <r>    0.0966    0.0000 </r>
       <r>    0.1037    0.0000 </r>
       <r>    1.1734    0.0000 </r>
       <r>    1.6816    0.0000 </r>
       <r>    1.9735    0.0000 </r>
       <r>    2.3052    0.0000 </r>
       <r>    2.4864    0.0000 </r>
      </set>
      <set comment="kpoint 9">
       <r>  -21.7753    1.0000 </r>
       <r>  -21.4029    1.0000 </r>
       <r>  -20.3049    1.0000 </r>
       <r>  -20.2893    1.0000 </r>
       <r>  -18.1667    1.0000 </r>
       <r>  -18.1505    1.0000 </r>
       <r>  -17.4899    1.0000 </r>
       <r>  -17.4736    1.0000 </r>
       <r>  -17.2261    1.0000 </r>
       <r>  -15.7530    1.0000 </r>
       <r>  -14.3275    1.0000 </r>
       <r>  -14.3138    1.0000 </r>
       <r>  -13.9559    1.0000 </r>
       <r>  -13.9417    1.0000 </r>
       <r>  -11.2696    1.0000 </r>
       <r>  -11.2518    1.0000 </r>
       <r>  -10.5965    1.0000 </r>
       <r>  -10.5809    1.0000 </r>
       <r>  -10.3396    1.0000 </r>
       <r>  -10.3201    1.0000 </r>
       <r>   -9.7876    1.0000 </r>
       <r>   -9.3479    1.0000 </r>
       <r>   -9.1396    1.0000 </r>
       <r>   -9.1060    1.0000 </r>
       <r>   -9.0919    1.0000 </r>
       <r>   -8.6556    1.0000 </r>
       <r>   -8.0693    1.0000 </r>
       <r>   -8.0552    1.0000 </r>
       <r>   -7.5503    1.0000 </r>
       <r>   -7.1570    1.0000 </r>
       <r>   -6.6503    1.0000 </r>
       <r>   -5.7548    1.0000 </r>
       <r>   -5.7413    1.0000 </r>
       <r>   -5.1913    1.0000 </r>
       <r>   -5.0544    1.0000 </r>
       <r>   -5.0404    1.0000 </r>
       <r>   -0.9826    0.0000 </r>
       <r>   -0.5925    0.0000 </r>
       <r>   -0.5746    0.0000 </r>
       <r>    0.0942    0.0000 </r>
       <r>    0.1135    0.0000 </r>
       <r>    1.1735    0.0000 </r>
       <r>    1.6817    0.0000 </r>
       <r>    1.9736    0.0000 </r>
       <r>    2.3052    0.0000 </r>
       <r>    2.4866    0.0000 </r>
      </set>
      <set comment="kpoint 10">
       <r>  -21.7751    1.0000 </r>
       <r>  -21.4029    1.0000 </r>
       <r>  -20.3079    1.0000 </r>
       <r>  -20.2866    1.0000 </r>
       <r>  -18.1692    1.0000 </r>
       <r>  -18.1476    1.0000 </r>
       <r>  -17.4925    1.0000 </r>
       <r>  -17.4708    1.0000 </r>
       <r>  -17.2278    1.0000 </r>
       <r>  -15.7484    1.0000 </r>
       <r>  -14.3302    1.0000 </r>
       <r>  -14.3130    1.0000 </r>
       <r>  -13.9587    1.0000 </r>
       <r>  -13.9413    1.0000 </r>
       <r>  -11.2714    1.0000 </r>
       <r>  -11.2482    1.0000 </r>
       <r>  -10.6033    1.0000 </r>
       <r>  -10.5859    1.0000 </r>
       <r>  -10.3400    1.0000 </r>
       <r>  -10.3166    1.0000 </r>
       <r>   -9.7877    1.0000 </r>
       <r>   -9.3483    1.0000 </r>
       <r>   -9.1445    1.0000 </r>
       <r>   -9.0973    1.0000 </r>
       <r>   -9.0873    1.0000 </r>
       <r>   -8.6495    1.0000 </r>
       <r>   -8.0709    1.0000 </r>
       <r>   -8.0522    1.0000 </r>
       <r>   -7.5434    1.0000 </r>
       <r>   -7.1633    1.0000 </r>
       <r>   -6.6586    1.0000 </r>
       <r>   -5.7564    1.0000 </r>
       <r>   -5.7385    1.0000 </r>
       <r>   -5.1958    1.0000 </r>
       <r>   -5.0564    1.0000 </r>
       <r>   -5.0380    1.0000 </r>
       <r>   -0.9746    0.0000 </r>
       <r>   -0.5968    0.0000 </r>
       <r>   -0.5720    0.0000 </r>
       <r>    0.0897    0.0000 </r>
       <r>    0.1160    0.0000 </r>
       <r>    1.1734    0.0000 </r>
       <r>    1.6817    0.0000 </r>
       <r>    1.9736    0.0000 </r>
       <r>    2.3052    0.0000 </r>
       <r>    2.4865    0.0000 </r>
      </set>
      <set comment="kpoint 11">
       <r>  -22.0954    1.0000 </r>
       <r>  -20.6135    1.0000 </r>
       <r>  -20.6088    1.0000 </r>
       <r>  -19.5228    1.0000 </r>
       <r>  -19.5165    1.0000 </r>
       <r>  -18.4573    1.0000 </r>
       <r>  -18.4524    1.0000 </r>
       <r>  -16.7788    1.0000 </r>
       <r>  -16.1602    1.0000 </r>
       <r>  -15.2440    1.0000 </r>
       <r>  -14.2554    1.0000 </r>
       <r>  -14.1642    1.0000 </r>
       <r>  -14.1485    1.0000 </r>
       <r>  -12.6073    1.0000 </r>
       <r>  -12.3140    1.0000 </r>
       <r>  -12.3091    1.0000 </r>
       <r>  -12.2645    1.0000 </r>
       <r>  -10.4964    1.0000 </r>
       <r>  -10.4746    1.0000 </r>
       <r>  -10.1684    1.0000 </r>
       <r>   -9.1787    1.0000 </r>
       <r>   -9.1739    1.0000 </r>
       <r>   -9.1318    1.0000 </r>
       <r>   -9.1131    1.0000 </r>
       <r>   -8.4285    1.0000 </r>
       <r>   -8.4240    1.0000 </r>
       <r>   -8.0887    1.0000 </r>
       <r>   -8.0626    1.0000 </r>
       <r>   -7.1933    1.0000 </r>
       <r>   -7.1873    1.0000 </r>
       <r>   -6.4037    1.0000 </r>
       <r>   -6.1356    1.0000 </r>
       <r>   -6.1100    1.0000 </r>
       <r>   -6.1005    1.0000 </r>
       <r>   -4.2594    1.0000 </r>
       <r>   -3.8966    1.0000 </r>
       <r>   -1.7141    0.0000 </r>
       <r>   -1.2627    0.0000 </r>
       <r>    0.2651    0.0000 </r>
       <r>    0.2849    0.0000 </r>
       <r>    0.7375    0.0000 </r>
       <r>    1.5326    0.0000 </r>
       <r>    1.8583    0.0000 </r>
       <r>    2.0050    0.0000 </r>
       <r>    2.0147    0.0000 </r>
       <r>    2.7776    0.0000 </r>
      </set>
      <set comment="kpoint 12">
       <r>  -22.0955    1.0000 </r>
       <r>  -20.6201    1.0000 </r>
       <r>  -20.6023    1.0000 </r>
       <r>  -19.5312    1.0000 </r>
       <r>  -19.5070    1.0000 </r>
       <r>  -18.4644    1.0000 </r>
       <r>  -18.4457    1.0000 </r>
       <r>  -16.7783    1.0000 </r>
       <r>  -16.1681    1.0000 </r>
       <r>  -15.2270    1.0000 </r>
       <r>  -14.2640    1.0000 </r>
       <r>  -14.1758    1.0000 </r>
       <r>  -14.1488    1.0000 </r>
       <r>  -12.5966    1.0000 </r>
       <r>  -12.3081    1.0000 </r>
       <r>  -12.2919    1.0000 </r>
       <r>  -12.2762    1.0000 </r>
       <r>  -10.5072    1.0000 </r>
       <r>  -10.4732    1.0000 </r>
       <r>  -10.1683    1.0000 </r>
       <r>   -9.2053    1.0000 </r>
       <r>   -9.1721    1.0000 </r>
       <r>   -9.1268    1.0000 </r>
       <r>   -9.1071    1.0000 </r>
       <r>   -8.4328    1.0000 </r>
       <r>   -8.4188    1.0000 </r>
       <r>   -8.0852    1.0000 </r>
       <r>   -8.0540    1.0000 </r>
       <r>   -7.2044    1.0000 </r>
       <r>   -7.1823    1.0000 </r>
       <r>   -6.4290    1.0000 </r>
       <r>   -6.1096    1.0000 </r>
       <r>   -6.1081    1.0000 </r>
       <r>   -6.0946    1.0000 </r>
       <r>   -4.2517    1.0000 </r>
       <r>   -3.9096    1.0000 </r>
       <r>   -1.6964    0.0000 </r>
       <r>   -1.2746    0.0000 </r>
       <r>    0.2572    0.0000 </r>
       <r>    0.2755    0.0000 </r>
       <r>    0.7376    0.0000 </r>
       <r>    1.5326    0.0000 </r>
       <r>    1.8583    0.0000 </r>
       <r>    2.0052    0.0000 </r>
       <r>    2.0343    0.0000 </r>
       <r>    2.7776    0.0000 </r>
      </set>
      <set comment="kpoint 13">
       <r>  -22.0954    1.0000 </r>
       <r>  -20.6176    1.0000 </r>
       <r>  -20.6046    1.0000 </r>
       <r>  -19.5286    1.0000 </r>
       <r>  -19.5108    1.0000 </r>
       <r>  -18.4617    1.0000 </r>
       <r>  -18.4480    1.0000 </r>
       <r>  -16.7794    1.0000 </r>
       <r>  -16.1569    1.0000 </r>
       <r>  -15.2504    1.0000 </r>
       <r>  -14.2499    1.0000 </r>
       <r>  -14.1667    1.0000 </r>
       <r>  -14.1436    1.0000 </r>
       <r>  -12.6115    1.0000 </r>
       <r>  -12.3203    1.0000 </r>
       <r>  -12.3085    1.0000 </r>
       <r>  -12.2629    1.0000 </r>
       <r>  -10.4980    1.0000 </r>
       <r>  -10.4696    1.0000 </r>
       <r>  -10.1685    1.0000 </r>
       <r>   -9.1800    1.0000 </r>
       <r>   -9.1635    1.0000 </r>
       <r>   -9.1348    1.0000 </r>
       <r>   -9.1141    1.0000 </r>
       <r>   -8.4316    1.0000 </r>
       <r>   -8.4212    1.0000 </r>
       <r>   -8.0922    1.0000 </r>
       <r>   -8.0635    1.0000 </r>
       <r>   -7.1972    1.0000 </r>
       <r>   -7.1809    1.0000 </r>
       <r>   -6.3934    1.0000 </r>
       <r>   -6.1461    1.0000 </r>
       <r>   -6.1126    1.0000 </r>
       <r>   -6.1009    1.0000 </r>
       <r>   -4.2624    1.0000 </r>
       <r>   -3.8917    1.0000 </r>
       <r>   -1.7207    0.0000 </r>
       <r>   -1.2581    0.0000 </r>
       <r>    0.2685    0.0000 </r>
       <r>    0.2878    0.0000 </r>
       <r>    0.7375    0.0000 </r>
       <r>    1.5326    0.0000 </r>
       <r>    1.8583    0.0000 </r>
       <r>    1.9953    0.0000 </r>
       <r>    2.0171    0.0000 </r>
       <r>    2.7776    0.0000 </r>
      </set>
      <set comment="kpoint 14">
       <r>  -21.8818    1.0000 </r>
       <r>  -21.1377    1.0000 </r>
       <r>  -20.7692    1.0000 </r>
       <r>  -19.6749    1.0000 </r>
       <r>  -18.9581    1.0000 </r>
       <r>  -17.9166    1.0000 </r>
       <r>  -17.5983    1.0000 </r>
       <r>  -17.5689    1.0000 </r>
       <r>  -16.6703    1.0000 </r>
       <r>  -15.2556    1.0000 </r>
       <r>  -15.2426    1.0000 </r>
       <r>  -14.6402    1.0000 </r>
       <r>  -13.7284    1.0000 </r>
       <r>  -12.8209    1.0000 </r>
       <r>  -11.8977    1.0000 </r>
       <r>  -11.6903    1.0000 </r>
       <r>  -11.3868    1.0000 </r>
       <r>  -10.0407    1.0000 </r>
       <r>   -9.9288    1.0000 </r>
       <r>   -9.9145    1.0000 </r>
       <r>   -9.7050    1.0000 </r>
       <r>   -9.6212    1.0000 </r>
       <r>   -9.2926    1.0000 </r>
       <r>   -9.2503    1.0000 </r>
       <r>   -9.0384    1.0000 </r>
       <r>   -8.6058    1.0000 </r>
       <r>   -8.2443    1.0000 </r>
       <r>   -7.5946    1.0000 </r>
       <r>   -7.3525    1.0000 </r>
       <r>   -7.1299    1.0000 </r>
       <r>   -6.5684    1.0000 </r>
       <r>   -6.5591    1.0000 </r>
       <r>   -5.5776    1.0000 </r>
       <r>   -5.3941    1.0000 </r>
       <r>   -5.0736    1.0000 </r>
       <r>   -4.4315    1.0000 </r>
       <r>   -1.2986    0.0000 </r>
       <r>   -0.6710    0.0000 </r>
       <r>   -0.4254    0.0000 </r>
       <r>   -0.3049    0.0000 </r>
       <r>    1.0282    0.0000 </r>
       <r>    1.2268    0.0000 </r>
       <r>    1.8267    0.0000 </r>
       <r>    2.0446    0.0000 </r>
       <r>    2.1562    0.0000 </r>
       <r>    2.3964    0.0000 </r>
      </set>
      <set comment="kpoint 15">
       <r>  -21.8818    1.0000 </r>
       <r>  -21.1382    1.0000 </r>
       <r>  -20.7686    1.0000 </r>
       <r>  -19.6743    1.0000 </r>
       <r>  -18.9578    1.0000 </r>
       <r>  -17.9171    1.0000 </r>
       <r>  -17.5943    1.0000 </r>
       <r>  -17.5715    1.0000 </r>
       <r>  -16.6745    1.0000 </r>
       <r>  -15.2638    1.0000 </r>
       <r>  -15.2358    1.0000 </r>
       <r>  -14.6370    1.0000 </r>
       <r>  -13.7349    1.0000 </r>
       <r>  -12.8139    1.0000 </r>
       <r>  -11.8906    1.0000 </r>
       <r>  -11.6720    1.0000 </r>
       <r>  -11.3974    1.0000 </r>
       <r>  -10.0499    1.0000 </r>
       <r>   -9.9147    1.0000 </r>
       <r>   -9.9141    1.0000 </r>
       <r>   -9.7078    1.0000 </r>
       <r>   -9.6412    1.0000 </r>
       <r>   -9.2816    1.0000 </r>
       <r>   -9.2637    1.0000 </r>
       <r>   -9.0373    1.0000 </r>
       <r>   -8.6071    1.0000 </r>
       <r>   -8.2619    1.0000 </r>
       <r>   -7.5706    1.0000 </r>
       <r>   -7.3564    1.0000 </r>
       <r>   -7.1612    1.0000 </r>
       <r>   -6.5700    1.0000 </r>
       <r>   -6.5261    1.0000 </r>
       <r>   -5.5792    1.0000 </r>
       <r>   -5.3790    1.0000 </r>
       <r>   -5.0696    1.0000 </r>
       <r>   -4.4419    1.0000 </r>
       <r>   -1.2826    0.0000 </r>
       <r>   -0.6971    0.0000 </r>
       <r>   -0.4331    0.0000 </r>
       <r>   -0.3032    0.0000 </r>
       <r>    1.0282    0.0000 </r>
       <r>    1.2312    0.0000 </r>
       <r>    1.8267    0.0000 </r>
       <r>    2.0446    0.0000 </r>
       <r>    2.1562    0.0000 </r>
       <r>    2.4106    0.0000 </r>
      </set>
      <set comment="kpoint 16">
       <r>  -21.8817    1.0000 </r>
       <r>  -21.1382    1.0000 </r>
       <r>  -20.7686    1.0000 </r>
       <r>  -19.6745    1.0000 </r>
       <r>  -18.9586    1.0000 </r>
       <r>  -17.9172    1.0000 </r>
       <r>  -17.5952    1.0000 </r>
       <r>  -17.5711    1.0000 </r>
       <r>  -16.6685    1.0000 </r>
       <r>  -15.2622    1.0000 </r>
       <r>  -15.2521    1.0000 </r>
       <r>  -14.6272    1.0000 </r>
       <r>  -13.7185    1.0000 </r>
       <r>  -12.8289    1.0000 </r>
       <r>  -11.9088    1.0000 </r>
       <r>  -11.6858    1.0000 </r>
       <r>  -11.3818    1.0000 </r>
       <r>  -10.0313    1.0000 </r>
       <r>   -9.9144    1.0000 </r>
       <r>   -9.9069    1.0000 </r>
       <r>   -9.7212    1.0000 </r>
       <r>   -9.6258    1.0000 </r>
       <r>   -9.2866    1.0000 </r>
       <r>   -9.2633    1.0000 </r>
       <r>   -9.0372    1.0000 </r>
       <r>   -8.6075    1.0000 </r>
       <r>   -8.2701    1.0000 </r>
       <r>   -7.5712    1.0000 </r>
       <r>   -7.3539    1.0000 </r>
       <r>   -7.1358    1.0000 </r>
       <r>   -6.5644    1.0000 </r>
       <r>   -6.5527    1.0000 </r>
       <r>   -5.5887    1.0000 </r>
       <r>   -5.3837    1.0000 </r>
       <r>   -5.0784    1.0000 </r>
       <r>   -4.4249    1.0000 </r>
       <r>   -1.3087    0.0000 </r>
       <r>   -0.6885    0.0000 </r>
       <r>   -0.4177    0.0000 </r>
       <r>   -0.2831    0.0000 </r>
       <r>    1.0282    0.0000 </r>
       <r>    1.2154    0.0000 </r>
       <r>    1.8267    0.0000 </r>
       <r>    2.0447    0.0000 </r>
       <r>    2.1562    0.0000 </r>
       <r>    2.4022    0.0000 </r>
      </set>
      <set comment="kpoint 17">
       <r>  -21.8818    1.0000 </r>
       <r>  -21.1382    1.0000 </r>
       <r>  -20.7688    1.0000 </r>
       <r>  -19.6744    1.0000 </r>
       <r>  -18.9577    1.0000 </r>
       <r>  -17.9168    1.0000 </r>
       <r>  -17.5943    1.0000 </r>
       <r>  -17.5720    1.0000 </r>
       <r>  -16.6747    1.0000 </r>
       <r>  -15.2595    1.0000 </r>
       <r>  -15.2359    1.0000 </r>
       <r>  -14.6404    1.0000 </r>
       <r>  -13.7366    1.0000 </r>
       <r>  -12.8123    1.0000 </r>
       <r>  -11.8891    1.0000 </r>
       <r>  -11.6747    1.0000 </r>
       <r>  -11.3975    1.0000 </r>
       <r>  -10.0521    1.0000 </r>
       <r>   -9.9209    1.0000 </r>
       <r>   -9.9141    1.0000 </r>
       <r>   -9.7034    1.0000 </r>
       <r>   -9.6383    1.0000 </r>
       <r>   -9.2851    1.0000 </r>
       <r>   -9.2580    1.0000 </r>
       <r>   -9.0378    1.0000 </r>
       <r>   -8.6066    1.0000 </r>
       <r>   -8.2543    1.0000 </r>
       <r>   -7.5782    1.0000 </r>
       <r>   -7.3557    1.0000 </r>
       <r>   -7.1571    1.0000 </r>
       <r>   -6.5708    1.0000 </r>
       <r>   -6.5304    1.0000 </r>
       <r>   -5.5762    1.0000 </r>
       <r>   -5.3829    1.0000 </r>
       <r>   -5.0690    1.0000 </r>
       <r>   -4.4426    1.0000 </r>
       <r>   -1.2815    0.0000 </r>
       <r>   -0.6900    0.0000 </r>
       <r>   -0.4353    0.0000 </r>
       <r>   -0.3080    0.0000 </r>
       <r>    1.0282    0.0000 </r>
       <r>    1.2336    0.0000 </r>
       <r>    1.8267    0.0000 </r>
       <r>    2.0446    0.0000 </r>
       <r>    2.1562    0.0000 </r>
       <r>    2.4078    0.0000 </r>
      </set>
      <set comment="kpoint 18">
       <r>  -21.8818    1.0000 </r>
       <r>  -21.1382    1.0000 </r>
       <r>  -20.7686    1.0000 </r>
       <r>  -19.6743    1.0000 </r>
       <r>  -18.9586    1.0000 </r>
       <r>  -17.9173    1.0000 </r>
       <r>  -17.5961    1.0000 </r>
       <r>  -17.5694    1.0000 </r>
       <r>  -16.6702    1.0000 </r>
       <r>  -15.2605    1.0000 </r>
       <r>  -15.2528    1.0000 </r>
       <r>  -14.6276    1.0000 </r>
       <r>  -13.7217    1.0000 </r>
       <r>  -12.8259    1.0000 </r>
       <r>  -11.9052    1.0000 </r>
       <r>  -11.6805    1.0000 </r>
       <r>  -11.3853    1.0000 </r>
       <r>  -10.0347    1.0000 </r>
       <r>   -9.9143    1.0000 </r>
       <r>   -9.9033    1.0000 </r>
       <r>   -9.7213    1.0000 </r>
       <r>   -9.6325    1.0000 </r>
       <r>   -9.2825    1.0000 </r>
       <r>   -9.2678    1.0000 </r>
       <r>   -9.0368    1.0000 </r>
       <r>   -8.6079    1.0000 </r>
       <r>   -8.2735    1.0000 </r>
       <r>   -7.5658    1.0000 </r>
       <r>   -7.3551    1.0000 </r>
       <r>   -7.1457    1.0000 </r>
       <r>   -6.5654    1.0000 </r>
       <r>   -6.5422    1.0000 </r>
       <r>   -5.5881    1.0000 </r>
       <r>   -5.3798    1.0000 </r>
       <r>   -5.0763    1.0000 </r>
       <r>   -4.4290    1.0000 </r>
       <r>   -1.3024    0.0000 </r>
       <r>   -0.6959    0.0000 </r>
       <r>   -0.4213    0.0000 </r>
       <r>   -0.2841    0.0000 </r>
       <r>    1.0282    0.0000 </r>
       <r>    1.2180    0.0000 </r>
       <r>    1.8267    0.0000 </r>
       <r>    2.0448    0.0000 </r>
       <r>    2.1562    0.0000 </r>
       <r>    2.5527    0.0000 </r>
      </set>
      <set comment="kpoint 19">
       <r>  -21.8817    1.0000 </r>
       <r>  -21.1378    1.0000 </r>
       <r>  -20.7690    1.0000 </r>
       <r>  -19.6751    1.0000 </r>
       <r>  -18.9581    1.0000 </r>
       <r>  -17.9169    1.0000 </r>
       <r>  -17.5975    1.0000 </r>
       <r>  -17.5700    1.0000 </r>
       <r>  -16.6684    1.0000 </r>
       <r>  -15.2622    1.0000 </r>
       <r>  -15.2411    1.0000 </r>
       <r>  -14.6364    1.0000 </r>
       <r>  -13.7236    1.0000 </r>
       <r>  -12.8254    1.0000 </r>
       <r>  -11.9029    1.0000 </r>
       <r>  -11.6928    1.0000 </r>
       <r>  -11.3831    1.0000 </r>
       <r>  -10.0351    1.0000 </r>
       <r>   -9.9261    1.0000 </r>
       <r>   -9.9145    1.0000 </r>
       <r>   -9.7093    1.0000 </r>
       <r>   -9.6175    1.0000 </r>
       <r>   -9.2929    1.0000 </r>
       <r>   -9.2517    1.0000 </r>
       <r>   -9.0383    1.0000 </r>
       <r>   -8.6060    1.0000 </r>
       <r>   -8.2485    1.0000 </r>
       <r>   -7.5924    1.0000 </r>
       <r>   -7.3522    1.0000 </r>
       <r>   -7.1240    1.0000 </r>
       <r>   -6.5665    1.0000 </r>
       <r>   -6.5653    1.0000 </r>
       <r>   -5.5810    1.0000 </r>
       <r>   -5.3942    1.0000 </r>
       <r>   -5.0764    1.0000 </r>
       <r>   -4.4266    1.0000 </r>
       <r>   -1.3059    0.0000 </r>
       <r>   -0.6707    0.0000 </r>
       <r>   -0.4195    0.0000 </r>
       <r>   -0.2992    0.0000 </r>
       <r>    1.0282    0.0000 </r>
       <r>    1.2218    0.0000 </r>
       <r>    1.8267    0.0000 </r>
       <r>    2.0446    0.0000 </r>
       <r>    2.1562    0.0000 </r>
       <r>    2.3950    0.0000 </r>
      </set>
      <set comment="kpoint 20">
       <r>  -21.5708    1.0000 </r>
       <r>  -21.5533    1.0000 </r>
       <r>  -20.8218    1.0000 </r>
       <r>  -19.7268    1.0000 </r>
       <r>  -18.3187    1.0000 </r>
       <r>  -18.2933    1.0000 </r>
       <r>  -17.3203    1.0000 </r>
       <r>  -17.2936    1.0000 </r>
       <r>  -16.9923    1.0000 </r>
       <r>  -15.9267    1.0000 </r>
       <r>  -15.0230    1.0000 </r>
       <r>  -15.0040    1.0000 </r>
       <r>  -13.2927    1.0000 </r>
       <r>  -13.2728    1.0000 </r>
       <r>  -11.3707    1.0000 </r>
       <r>  -10.9953    1.0000 </r>
       <r>  -10.9792    1.0000 </r>
       <r>  -10.5038    1.0000 </r>
       <r>  -10.4882    1.0000 </r>
       <r>   -9.8913    1.0000 </r>
       <r>   -9.6503    1.0000 </r>
       <r>   -9.5435    1.0000 </r>
       <r>   -9.5292    1.0000 </r>
       <r>   -9.3456    1.0000 </r>
       <r>   -8.6663    1.0000 </r>
       <r>   -8.4033    1.0000 </r>
       <r>   -8.1277    1.0000 </r>
       <r>   -8.0911    1.0000 </r>
       <r>   -7.4072    1.0000 </r>
       <r>   -7.0905    1.0000 </r>
       <r>   -7.0475    1.0000 </r>
       <r>   -5.8670    1.0000 </r>
       <r>   -5.8455    1.0000 </r>
       <r>   -5.0744    1.0000 </r>
       <r>   -5.0183    1.0000 </r>
       <r>   -4.9994    1.0000 </r>
       <r>   -1.0725    0.0000 </r>
       <r>   -0.8365    0.0000 </r>
       <r>   -0.8193    0.0000 </r>
       <r>    0.4020    0.0000 </r>
       <r>    0.4217    0.0000 </r>
       <r>    1.4630    0.0000 </r>
       <r>    1.4650    0.0000 </r>
       <r>    2.2666    0.0000 </r>
       <r>    2.2674    0.0000 </r>
       <r>    2.6029    0.0000 </r>
      </set>
      <set comment="kpoint 21">
       <r>  -21.5687    1.0000 </r>
       <r>  -21.5559    1.0000 </r>
       <r>  -20.8213    1.0000 </r>
       <r>  -19.7261    1.0000 </r>
       <r>  -18.3157    1.0000 </r>
       <r>  -18.2970    1.0000 </r>
       <r>  -17.3180    1.0000 </r>
       <r>  -17.2985    1.0000 </r>
       <r>  -16.9827    1.0000 </r>
       <r>  -15.9482    1.0000 </r>
       <r>  -15.0156    1.0000 </r>
       <r>  -14.9981    1.0000 </r>
       <r>  -13.2911    1.0000 </r>
       <r>  -13.2720    1.0000 </r>
       <r>  -11.3494    1.0000 </r>
       <r>  -10.9980    1.0000 </r>
       <r>  -10.9790    1.0000 </r>
       <r>  -10.5112    1.0000 </r>
       <r>  -10.4944    1.0000 </r>
       <r>   -9.9158    1.0000 </r>
       <r>   -9.6239    1.0000 </r>
       <r>   -9.5409    1.0000 </r>
       <r>   -9.5304    1.0000 </r>
       <r>   -9.3284    1.0000 </r>
       <r>   -8.6680    1.0000 </r>
       <r>   -8.4313    1.0000 </r>
       <r>   -8.1475    1.0000 </r>
       <r>   -8.1222    1.0000 </r>
       <r>   -7.4106    1.0000 </r>
       <r>   -7.0584    1.0000 </r>
       <r>   -7.0238    1.0000 </r>
       <r>   -5.8639    1.0000 </r>
       <r>   -5.8473    1.0000 </r>
       <r>   -5.0564    1.0000 </r>
       <r>   -5.0235    1.0000 </r>
       <r>   -5.0042    1.0000 </r>
       <r>   -1.1021    0.0000 </r>
       <r>   -0.8303    0.0000 </r>
       <r>   -0.8084    0.0000 </r>
       <r>    0.4003    0.0000 </r>
       <r>    0.4199    0.0000 </r>
       <r>    1.4634    0.0000 </r>
       <r>    1.4648    0.0000 </r>
       <r>    2.2668    0.0000 </r>
       <r>    2.2674    0.0000 </r>
       <r>    2.4881    0.0000 </r>
      </set>
      <set comment="kpoint 22">
       <r>  -21.5645    1.0000 </r>
       <r>  -21.5600    1.0000 </r>
       <r>  -20.8214    1.0000 </r>
       <r>  -19.7262    1.0000 </r>
       <r>  -18.3096    1.0000 </r>
       <r>  -18.3030    1.0000 </r>
       <r>  -17.3114    1.0000 </r>
       <r>  -17.3043    1.0000 </r>
       <r>  -16.9854    1.0000 </r>
       <r>  -15.9424    1.0000 </r>
       <r>  -15.0165    1.0000 </r>
       <r>  -15.0006    1.0000 </r>
       <r>  -13.2908    1.0000 </r>
       <r>  -13.2726    1.0000 </r>
       <r>  -11.3555    1.0000 </r>
       <r>  -10.9987    1.0000 </r>
       <r>  -10.9778    1.0000 </r>
       <r>  -10.5097    1.0000 </r>
       <r>  -10.4925    1.0000 </r>
       <r>   -9.9096    1.0000 </r>
       <r>   -9.6305    1.0000 </r>
       <r>   -9.5378    1.0000 </r>
       <r>   -9.5340    1.0000 </r>
       <r>   -9.3331    1.0000 </r>
       <r>   -8.6675    1.0000 </r>
       <r>   -8.4231    1.0000 </r>
       <r>   -8.1361    1.0000 </r>
       <r>   -8.1212    1.0000 </r>
       <r>   -7.4097    1.0000 </r>
       <r>   -7.0574    1.0000 </r>
       <r>   -7.0388    1.0000 </r>
       <r>   -5.8606    1.0000 </r>
       <r>   -5.8510    1.0000 </r>
       <r>   -5.0615    1.0000 </r>
       <r>   -5.0208    1.0000 </r>
       <r>   -5.0040    1.0000 </r>
       <r>   -1.0940    0.0000 </r>
       <r>   -0.8350    0.0000 </r>
       <r>   -0.8085    0.0000 </r>
       <r>    0.4009    0.0000 </r>
       <r>    0.4204    0.0000 </r>
       <r>    1.4638    0.0000 </r>
       <r>    1.4644    0.0000 </r>
       <r>    2.2670    0.0000 </r>
       <r>    2.2671    0.0000 </r>
       <r>    2.4880    0.0000 </r>
      </set>
      <set comment="kpoint 23">
       <r>  -21.6156    1.0000 </r>
       <r>  -21.2461    1.0000 </r>
       <r>  -21.2413    1.0000 </r>
       <r>  -19.0636    1.0000 </r>
       <r>  -19.0573    1.0000 </r>
       <r>  -18.3554    1.0000 </r>
       <r>  -17.0931    1.0000 </r>
       <r>  -17.0860    1.0000 </r>
       <r>  -16.7097    1.0000 </r>
       <r>  -15.6807    1.0000 </r>
       <r>  -15.6214    1.0000 </r>
       <r>  -15.6035    1.0000 </r>
       <r>  -12.9156    1.0000 </r>
       <r>  -12.2730    1.0000 </r>
       <r>  -12.2580    1.0000 </r>
       <r>  -11.3575    1.0000 </r>
       <r>  -10.5576    1.0000 </r>
       <r>  -10.5536    1.0000 </r>
       <r>  -10.5374    1.0000 </r>
       <r>   -9.8296    1.0000 </r>
       <r>   -9.8124    1.0000 </r>
       <r>   -9.5990    1.0000 </r>
       <r>   -9.1630    1.0000 </r>
       <r>   -9.1590    1.0000 </r>
       <r>   -8.8386    1.0000 </r>
       <r>   -8.8068    1.0000 </r>
       <r>   -7.8792    1.0000 </r>
       <r>   -7.7021    1.0000 </r>
       <r>   -7.6668    1.0000 </r>
       <r>   -7.0861    1.0000 </r>
       <r>   -6.6679    1.0000 </r>
       <r>   -6.6610    1.0000 </r>
       <r>   -5.8944    1.0000 </r>
       <r>   -5.0151    1.0000 </r>
       <r>   -4.9981    1.0000 </r>
       <r>   -4.6699    1.0000 </r>
       <r>   -1.2325    0.0000 </r>
       <r>   -1.0358    0.0000 </r>
       <r>   -1.0082    0.0000 </r>
       <r>    0.5307    0.0000 </r>
       <r>    1.3916    0.0000 </r>
       <r>    1.4740    0.0000 </r>
       <r>    1.4883    0.0000 </r>
       <r>    1.8998    0.0000 </r>
       <r>    1.9004    0.0000 </r>
       <r>    2.1938    0.0000 </r>
      </set>
      <set comment="kpoint 24">
       <r>  -21.6156    1.0000 </r>
       <r>  -21.2526    1.0000 </r>
       <r>  -21.2349    1.0000 </r>
       <r>  -19.0723    1.0000 </r>
       <r>  -19.0477    1.0000 </r>
       <r>  -18.3561    1.0000 </r>
       <r>  -17.0968    1.0000 </r>
       <r>  -17.0783    1.0000 </r>
       <r>  -16.7172    1.0000 </r>
       <r>  -15.6651    1.0000 </r>
       <r>  -15.6285    1.0000 </r>
       <r>  -15.6087    1.0000 </r>
       <r>  -12.9285    1.0000 </r>
       <r>  -12.2650    1.0000 </r>
       <r>  -12.2461    1.0000 </r>
       <r>  -11.3424    1.0000 </r>
       <r>  -10.5778    1.0000 </r>
       <r>  -10.5620    1.0000 </r>
       <r>  -10.5440    1.0000 </r>
       <r>   -9.8232    1.0000 </r>
       <r>   -9.8059    1.0000 </r>
       <r>   -9.5984    1.0000 </r>
       <r>   -9.1684    1.0000 </r>
       <r>   -9.1541    1.0000 </r>
       <r>   -8.8372    1.0000 </r>
       <r>   -8.8007    1.0000 </r>
       <r>   -7.9011    1.0000 </r>
       <r>   -7.7068    1.0000 </r>
       <r>   -7.6705    1.0000 </r>
       <r>   -7.0622    1.0000 </r>
       <r>   -6.6776    1.0000 </r>
       <r>   -6.6558    1.0000 </r>
       <r>   -5.8900    1.0000 </r>
       <r>   -5.0074    1.0000 </r>
       <r>   -4.9923    1.0000 </r>
       <r>   -4.6834    1.0000 </r>
       <r>   -1.2114    0.0000 </r>
       <r>   -1.0421    0.0000 </r>
       <r>   -1.0244    0.0000 </r>
       <r>    0.5196    0.0000 </r>
       <r>    1.3917    0.0000 </r>
       <r>    1.4755    0.0000 </r>
       <r>    1.5008    0.0000 </r>
       <r>    1.8990    0.0000 </r>
       <r>    1.9011    0.0000 </r>
       <r>    2.1939    0.0000 </r>
      </set>
      <set comment="kpoint 25">
       <r>  -21.6155    1.0000 </r>
       <r>  -21.2503    1.0000 </r>
       <r>  -21.2373    1.0000 </r>
       <r>  -19.0695    1.0000 </r>
       <r>  -19.0514    1.0000 </r>
       <r>  -18.3554    1.0000 </r>
       <r>  -17.0973    1.0000 </r>
       <r>  -17.0833    1.0000 </r>
       <r>  -16.7069    1.0000 </r>
       <r>  -15.6867    1.0000 </r>
       <r>  -15.6193    1.0000 </r>
       <r>  -15.6007    1.0000 </r>
       <r>  -12.9106    1.0000 </r>
       <r>  -12.2778    1.0000 </r>
       <r>  -12.2606    1.0000 </r>
       <r>  -11.3628    1.0000 </r>
       <r>  -10.5566    1.0000 </r>
       <r>  -10.5499    1.0000 </r>
       <r>  -10.5300    1.0000 </r>
       <r>   -9.8320    1.0000 </r>
       <r>   -9.8143    1.0000 </r>
       <r>   -9.5991    1.0000 </r>
       <r>   -9.1662    1.0000 </r>
       <r>   -9.1557    1.0000 </r>
       <r>   -8.8411    1.0000 </r>
       <r>   -8.8073    1.0000 </r>
       <r>   -7.8705    1.0000 </r>
       <r>   -7.7017    1.0000 </r>
       <r>   -7.6642    1.0000 </r>
       <r>   -7.0952    1.0000 </r>
       <r>   -6.6717    1.0000 </r>
       <r>   -6.6554    1.0000 </r>
       <r>   -5.8961    1.0000 </r>
       <r>   -5.0171    1.0000 </r>
       <r>   -5.0012    1.0000 </r>
       <r>   -4.6651    1.0000 </r>
       <r>   -1.2400    0.0000 </r>
       <r>   -1.0295    0.0000 </r>
       <r>   -1.0064    0.0000 </r>
       <r>    0.5349    0.0000 </r>
       <r>    1.3916    0.0000 </r>
       <r>    1.4683    0.0000 </r>
       <r>    1.4888    0.0000 </r>
       <r>    1.8993    0.0000 </r>
       <r>    1.9009    0.0000 </r>
       <r>    2.1938    0.0000 </r>
      </set>
     </set>
    </set>
   </array>
  </eigenvalues>
  <separator name="orbital magnetization" >
   <v name="MAGDIPOLOUT">      0.00000000      0.00000000      0.00000000</v>
  </separator>
  <dos>
   <i name="efermi">     -2.75535783 </i>
   <total>
    <array>
     <dimension dim="1">gridpoints</dimension>
     <dimension dim="2">spin</dimension>
     <field>energy</field>
     <field>total</field>
     <field>integrated</field>
     <set>
      <set comment="spin 1">
       <r>   -23.5114     0.0000     0.0000 </r>
       <r>   -23.4193     0.0000     0.0000 </r>
       <r>   -23.3273     0.0000     0.0000 </r>
       <r>   -23.2352     0.0000     0.0000 </r>
       <r>   -23.1432     0.0000     0.0000 </r>
       <r>   -23.0511     0.0000     0.0000 </r>
       <r>   -22.9590     0.0000     0.0000 </r>
       <r>   -22.8670     0.0000     0.0000 </r>
       <r>   -22.7749     0.0000     0.0000 </r>
       <r>   -22.6829     0.0000     0.0000 </r>
       <r>   -22.5908     0.0000     0.0000 </r>
       <r>   -22.4987     0.0000     0.0000 </r>
       <r>   -22.4067     0.0000     0.0000 </r>
       <r>   -22.3146     0.0236     0.0022 </r>
       <r>   -22.2226     1.1018     0.1036 </r>
       <r>   -22.1305     2.3660     0.3214 </r>
       <r>   -22.0384     3.5657     0.6497 </r>
       <r>   -21.9464     1.5377     0.7912 </r>
       <r>   -21.8543     4.0197     1.1613 </r>
       <r>   -21.7623     2.8376     1.4225 </r>
       <r>   -21.6702     1.1179     1.5254 </r>
       <r>   -21.5781     3.8577     1.8806 </r>
       <r>   -21.4861     3.8907     2.2388 </r>
       <r>   -21.3940     1.6568     2.3913 </r>
       <r>   -21.3020     1.3445     2.5151 </r>
       <r>   -21.2099     4.2369     2.9051 </r>
       <r>   -21.1178     4.6191     3.3304 </r>
       <r>   -21.0258     1.5130     3.4696 </r>
       <r>   -20.9337     1.1231     3.5730 </r>
       <r>   -20.8417     2.3745     3.7916 </r>
       <r>   -20.7496     5.5239     4.3002 </r>
       <r>   -20.6575     2.1365     4.4969 </r>
       <r>   -20.5655     4.2579     4.8888 </r>
       <r>   -20.4734     0.5426     4.9388 </r>
       <r>   -20.3813     0.5404     4.9885 </r>
       <r>   -20.2893     5.1516     5.4628 </r>
       <r>   -20.1972     4.6754     5.8932 </r>
       <r>   -20.1052     2.8943     6.1597 </r>
       <r>   -20.0131     1.1776     6.2681 </r>
       <r>   -19.9210     3.9681     6.6334 </r>
       <r>   -19.8290     0.2187     6.6535 </r>
       <r>   -19.7369     1.3588     6.7786 </r>
       <r>   -19.6449     7.5655     7.4751 </r>
       <r>   -19.5528     2.6667     7.7206 </r>
       <r>   -19.4607     4.0800     8.0962 </r>
       <r>   -19.3687     0.2939     8.1233 </r>
       <r>   -19.2766     1.8444     8.2931 </r>
       <r>   -19.1846     3.3848     8.6047 </r>
       <r>   -19.0925     1.0866     8.7047 </r>
       <r>   -19.0004     4.6735     9.1349 </r>
       <r>   -18.9084     5.7946     9.6684 </r>
       <r>   -18.8163     2.0613     9.8582 </r>
       <r>   -18.7243     4.0492    10.2309 </r>
       <r>   -18.6322     1.0366    10.3264 </r>
       <r>   -18.5401     0.0495    10.3309 </r>
       <r>   -18.4481     3.0259    10.6095 </r>
       <r>   -18.3560     4.0102    10.9787 </r>
       <r>   -18.2640     5.5541    11.4900 </r>
       <r>   -18.1719     2.5571    11.7254 </r>
       <r>   -18.0798     4.1878    12.1109 </r>
       <r>   -17.9878     1.9745    12.2927 </r>
       <r>   -17.8957     3.7885    12.6415 </r>
       <r>   -17.8036     1.4524    12.7752 </r>
       <r>   -17.7116     0.0066    12.7758 </r>
       <r>   -17.6195     1.7813    12.9398 </r>
       <r>   -17.5275     8.6654    13.7375 </r>
       <r>   -17.4354     4.9678    14.1949 </r>
       <r>   -17.3433     1.4261    14.3261 </r>
       <r>   -17.2513     4.7977    14.7678 </r>
       <r>   -17.1592     2.3706    14.9861 </r>
       <r>   -17.0672     3.8390    15.3395 </r>
       <r>   -16.9751     3.0794    15.6230 </r>
       <r>   -16.8830     0.9918    15.7143 </r>
       <r>   -16.7910     1.5615    15.8580 </r>
       <r>   -16.6989     8.6871    16.6578 </r>
       <r>   -16.6069     5.5213    17.1661 </r>
       <r>   -16.5148     0.1912    17.1837 </r>
       <r>   -16.4227     0.0000    17.1837 </r>
       <r>   -16.3307     0.0000    17.1837 </r>
       <r>   -16.2386     0.0414    17.1875 </r>
       <r>   -16.1466     1.7268    17.3465 </r>
       <r>   -16.0545     1.1681    17.4540 </r>
       <r>   -15.9624     4.7719    17.8933 </r>
       <r>   -15.8704     2.8518    18.1558 </r>
       <r>   -15.7783     0.5764    18.2089 </r>
       <r>   -15.6863     3.2401    18.5072 </r>
       <r>   -15.5942     5.2892    18.9941 </r>
       <r>   -15.5021     1.6095    19.1423 </r>
       <r>   -15.4101     0.0669    19.1484 </r>
       <r>   -15.3180     1.6537    19.3007 </r>
       <r>   -15.2259     9.8931    20.2114 </r>
       <r>   -15.1339     3.4565    20.5297 </r>
       <r>   -15.0418     1.0180    20.6234 </r>
       <r>   -14.9498     4.8819    21.0728 </r>
       <r>   -14.8577     4.4206    21.4798 </r>
       <r>   -14.7656     1.3269    21.6019 </r>
       <r>   -14.6736     2.8279    21.8623 </r>
       <r>   -14.5815     8.4726    22.6423 </r>
       <r>   -14.4895     1.0033    22.7346 </r>
       <r>   -14.3974     0.1008    22.7439 </r>
       <r>   -14.3053     3.7577    23.0899 </r>
       <r>   -14.2133     4.1785    23.4745 </r>
       <r>   -14.1212     4.4001    23.8796 </r>
       <r>   -14.0292     0.9425    23.9664 </r>
       <r>   -13.9371     3.3675    24.2764 </r>
       <r>   -13.8450     1.8685    24.4484 </r>
       <r>   -13.7530     1.2708    24.5654 </r>
       <r>   -13.6609     3.9870    24.9324 </r>
       <r>   -13.5689     2.3191    25.1459 </r>
       <r>   -13.4768     4.3137    25.5431 </r>
       <r>   -13.3847     1.4291    25.6746 </r>
       <r>   -13.2927     2.4540    25.9005 </r>
       <r>   -13.2006     3.6658    26.2380 </r>
       <r>   -13.1086     0.0753    26.2449 </r>
       <r>   -13.0165     0.8525    26.3234 </r>
       <r>   -12.9244     9.3251    27.1819 </r>
       <r>   -12.8324     5.1076    27.6521 </r>
       <r>   -12.7403     3.2712    27.9533 </r>
       <r>   -12.6483     0.3697    27.9873 </r>
       <r>   -12.5562     2.1245    28.1829 </r>
       <r>   -12.4641     0.2639    28.2072 </r>
       <r>   -12.3721     1.5966    28.3542 </r>
       <r>   -12.2800     7.9137    29.0827 </r>
       <r>   -12.1879     8.6964    29.8833 </r>
       <r>   -12.0959     3.0009    30.1596 </r>
       <r>   -12.0038     0.0500    30.1642 </r>
       <r>   -11.9118     1.9196    30.3409 </r>
       <r>   -11.8197     3.3713    30.6512 </r>
       <r>   -11.7276     3.6850    30.9905 </r>
       <r>   -11.6356     6.4451    31.5838 </r>
       <r>   -11.5435     0.5301    31.6326 </r>
       <r>   -11.4515     0.2391    31.6546 </r>
       <r>   -11.3594     6.4746    32.2507 </r>
       <r>   -11.2673     6.0603    32.8086 </r>
       <r>   -11.1753     3.3670    33.1186 </r>
       <r>   -11.0832     5.5408    33.6287 </r>
       <r>   -10.9912     4.7270    34.0638 </r>
       <r>   -10.8991     2.8136    34.3229 </r>
       <r>   -10.8070     0.0398    34.3265 </r>
       <r>   -10.7150     0.0045    34.3269 </r>
       <r>   -10.6229     1.5690    34.4714 </r>
       <r>   -10.5309    10.9518    35.4796 </r>
       <r>   -10.4388    10.6050    36.4559 </r>
       <r>   -10.3467     2.8957    36.7225 </r>
       <r>   -10.2547     5.9121    37.2668 </r>
       <r>   -10.1626     2.0680    37.4572 </r>
       <r>   -10.0706     4.3168    37.8546 </r>
       <r>    -9.9785     4.9468    38.3100 </r>
       <r>    -9.8864    10.8276    39.3068 </r>
       <r>    -9.7944     9.9777    40.2253 </r>
       <r>    -9.7023     6.2506    40.8007 </r>
       <r>    -9.6102     8.7400    41.6054 </r>
       <r>    -9.5182     8.8990    42.4246 </r>
       <r>    -9.4261     5.4723    42.9284 </r>
       <r>    -9.3341     3.8289    43.2809 </r>
       <r>    -9.2420    10.3229    44.2312 </r>
       <r>    -9.1499    12.0309    45.3388 </r>
       <r>    -9.0579    14.7993    46.7012 </r>
       <r>    -8.9658     6.8575    47.3325 </r>
       <r>    -8.8738     3.1540    47.6229 </r>
       <r>    -8.7817    12.2848    48.7538 </r>
       <r>    -8.6896     6.8992    49.3890 </r>
       <r>    -8.5976     7.4546    50.0753 </r>
       <r>    -8.5055     7.0033    50.7200 </r>
       <r>    -8.4135     8.1177    51.4673 </r>
       <r>    -8.3214     3.3453    51.7753 </r>
       <r>    -8.2293     3.9994    52.1435 </r>
       <r>    -8.1373     5.6338    52.6621 </r>
       <r>    -8.0452    13.6405    53.9179 </r>
       <r>    -7.9532     5.3565    54.4110 </r>
       <r>    -7.8611     4.9447    54.8662 </r>
       <r>    -7.7690     1.2174    54.9783 </r>
       <r>    -7.6770     8.3454    55.7466 </r>
       <r>    -7.5849     7.0632    56.3968 </r>
       <r>    -7.4929     5.1164    56.8678 </r>
       <r>    -7.4008     2.9873    57.1428 </r>
       <r>    -7.3087     7.3133    57.8161 </r>
       <r>    -7.2167     2.3351    58.0311 </r>
       <r>    -7.1246     9.9828    58.9501 </r>
       <r>    -7.0325     7.6842    59.6575 </r>
       <r>    -6.9405     3.5912    59.9881 </r>
       <r>    -6.8484     3.5722    60.3170 </r>
       <r>    -6.7564     0.1539    60.3312 </r>
       <r>    -6.6643     4.3298    60.7298 </r>
       <r>    -6.5722    10.5363    61.6997 </r>
       <r>    -6.4802     8.8184    62.5116 </r>
       <r>    -6.3881     4.1234    62.8912 </r>
       <r>    -6.2961     4.0481    63.2638 </r>
       <r>    -6.2040     1.7477    63.4247 </r>
       <r>    -6.1119     4.9703    63.8823 </r>
       <r>    -6.0199     4.8701    64.3306 </r>
       <r>    -5.9278     2.8244    64.5906 </r>
       <r>    -5.8358     7.9194    65.3197 </r>
       <r>    -5.7437     7.1463    65.9776 </r>
       <r>    -5.6516     3.4576    66.2959 </r>
       <r>    -5.5596     3.7896    66.6448 </r>
       <r>    -5.4675     1.4766    66.7807 </r>
       <r>    -5.3755     3.1959    67.0749 </r>
       <r>    -5.2834     2.0814    67.2666 </r>
       <r>    -5.1913     1.5306    67.4075 </r>
       <r>    -5.0993     3.2676    67.7083 </r>
       <r>    -5.0072    15.5713    69.1418 </r>
       <r>    -4.9152     6.1602    69.7089 </r>
       <r>    -4.8231     0.0585    69.7143 </r>
       <r>    -4.7310     0.1435    69.7275 </r>
       <r>    -4.6390     2.0507    69.9163 </r>
       <r>    -4.5469     0.4694    69.9595 </r>
       <r>    -4.4549     1.4320    70.0913 </r>
       <r>    -4.3628     3.9536    70.4553 </r>
       <r>    -4.2707     5.0518    70.9204 </r>
       <r>    -4.1787     2.8227    71.1802 </r>
       <r>    -4.0866     0.0373    71.1837 </r>
       <r>    -3.9945     0.0113    71.1847 </r>
       <r>    -3.9025     1.2257    71.2976 </r>
       <r>    -3.8104     1.4049    71.4269 </r>
       <r>    -3.7184     0.0183    71.4286 </r>
       <r>    -3.6263     0.0153    71.4300 </r>
       <r>    -3.5342     2.2040    71.6329 </r>
       <r>    -3.4422     3.0504    71.9137 </r>
       <r>    -3.3501     0.0507    71.9184 </r>
       <r>    -3.2581     0.0000    71.9184 </r>
       <r>    -3.1660     0.0000    71.9184 </r>
       <r>    -3.0739     0.0000    71.9184 </r>
       <r>    -2.9819     0.0000    71.9184 </r>
       <r>    -2.8898     0.0003    71.9184 </r>
       <r>    -2.7978     0.2375    71.9403 </r>
       <r>    -2.7057     1.3602    72.0655 </r>
       <r>    -2.6136     0.1752    72.0816 </r>
       <r>    -2.5216     0.0002    72.0816 </r>
       <r>    -2.4295     0.0000    72.0816 </r>
       <r>    -2.3375     0.0000    72.0816 </r>
       <r>    -2.2454     0.0000    72.0816 </r>
       <r>    -2.1533     0.0001    72.0816 </r>
       <r>    -2.0613     0.3129    72.1104 </r>
       <r>    -1.9692     4.1283    72.4905 </r>
       <r>    -1.8772     0.8779    72.5713 </r>
       <r>    -1.7851     0.0568    72.5766 </r>
       <r>    -1.6930     1.7586    72.7384 </r>
       <r>    -1.6010     0.8420    72.8160 </r>
       <r>    -1.5089     0.0040    72.8163 </r>
       <r>    -1.4168     0.0034    72.8166 </r>
       <r>    -1.3248     1.9901    72.9999 </r>
       <r>    -1.2327    11.3416    74.0440 </r>
       <r>    -1.1407     2.8322    74.3047 </r>
       <r>    -1.0486     3.5250    74.6292 </r>
       <r>    -0.9565     5.7728    75.1607 </r>
       <r>    -0.8645     1.8370    75.3298 </r>
       <r>    -0.7724     4.2034    75.7167 </r>
       <r>    -0.6804     3.3990    76.0297 </r>
       <r>    -0.5883     4.7669    76.4685 </r>
       <r>    -0.4962     2.9810    76.7429 </r>
       <r>    -0.4042     3.7606    77.0891 </r>
       <r>    -0.3121     3.3390    77.3965 </r>
       <r>    -0.2201     5.1780    77.8732 </r>
       <r>    -0.1280     0.9301    77.9588 </r>
       <r>    -0.0359     0.0042    77.9592 </r>
       <r>     0.0561     0.5540    78.0102 </r>
       <r>     0.1482     4.2067    78.3975 </r>
       <r>     0.2402     1.5520    78.5404 </r>
       <r>     0.3323     4.1211    78.9198 </r>
       <r>     0.4244     3.6360    79.2545 </r>
       <r>     0.5164     3.1118    79.5410 </r>
       <r>     0.6085     3.6479    79.8768 </r>
       <r>     0.7005     1.3331    79.9995 </r>
       <r>     0.7926     5.8453    80.5376 </r>
       <r>     0.8847     5.9019    81.0810 </r>
       <r>     0.9767     1.4959    81.2187 </r>
       <r>     1.0688     4.2765    81.6124 </r>
       <r>     1.1609     1.8285    81.7807 </r>
       <r>     1.2529     5.6638    82.3021 </r>
       <r>     1.3450     2.1050    82.4959 </r>
       <r>     1.4370     6.9692    83.1375 </r>
       <r>     1.5291    13.9738    84.4239 </r>
       <r>     1.6212     4.5264    84.8406 </r>
       <r>     1.7132     4.6729    85.2708 </r>
       <r>     1.8053     3.3515    85.5794 </r>
       <r>     1.8973     8.8269    86.3920 </r>
       <r>     1.9894     8.8843    87.2099 </r>
       <r>     2.0815     9.1963    88.0565 </r>
       <r>     2.1735     6.9983    88.7008 </r>
       <r>     2.2656     6.8461    89.3310 </r>
       <r>     2.3576     7.2988    90.0030 </r>
       <r>     2.4497     5.0723    90.4699 </r>
       <r>     2.5418     4.3246    90.8680 </r>
       <r>     2.6338     2.9206    91.1369 </r>
       <r>     2.7259     2.1855    91.3381 </r>
       <r>     2.8179     4.5650    91.7584 </r>
       <r>     2.9100     2.4951    91.9881 </r>
       <r>     3.0021     0.1296    92.0000 </r>
       <r>     3.0941     0.0000    92.0000 </r>
       <r>     3.1862     0.0000    92.0000 </r>
       <r>     3.2782     0.0000    92.0000 </r>
       <r>     3.3703     0.0000    92.0000 </r>
       <r>     3.4624     0.0000    92.0000 </r>
       <r>     3.5544     0.0000    92.0000 </r>
       <r>     3.6465     0.0000    92.0000 </r>
       <r>     3.7385     0.0000    92.0000 </r>
       <r>     3.8306     0.0000    92.0000 </r>
       <r>     3.9227     0.0000    92.0000 </r>
       <r>     4.0147     0.0000    92.0000 </r>
       <r>     4.1068     0.0000    92.0000 </r>
      </set>
     </set>
    </array>
   </total>
  </dos>
 </calculation>
 <structure name="finalpos" >
  <crystal>
   <varray name="basis" >
    <v>       7.40170591       0.00000000       0.00000000 </v>
    <v>      -3.70085295       6.41006527       0.00000000 </v>
    <v>       0.00000000       0.00000000      20.00000000 </v>
   </varray>
   <i name="volume">    948.90835877 </i>
   <varray name="rec_basis" >
    <v>       0.13510399       0.07800233       0.00000000 </v>
    <v>       0.00000000       0.15600465       0.00000000 </v>
    <v>       0.00000000       0.00000000       0.05000000 </v>
   </varray>
  </crystal>
  <varray name="positions" >
   <v>       0.99786894       0.99843995       0.50000000 </v>
   <v>       0.33333333       0.00000000       0.50000000 </v>
   <v>       0.66666667       0.00000000       0.50000000 </v>
   <v>       0.00000000       0.33333333       0.50000000 </v>
   <v>       0.33333333       0.33333333       0.50000000 </v>
   <v>       0.66666667       0.33333333       0.50000000 </v>
   <v>       0.00000000       0.66666667       0.50000000 </v>
   <v>       0.33333333       0.66666667       0.50000000 </v>
   <v>       0.66666667       0.66666667       0.50000000 </v>
   <v>       0.22222222       0.11111111       0.50000000 </v>
   <v>       0.55555556       0.11111111       0.50000000 </v>
   <v>       0.88888889       0.11111111       0.50000000 </v>
   <v>       0.22222222       0.44444444       0.50000000 </v>
   <v>       0.55555556       0.44444444       0.50000000 </v>
   <v>       0.88888889       0.44444444       0.50000000 </v>
   <v>       0.22222222       0.77777778       0.50000000 </v>
   <v>       0.55555556       0.77777778       0.50000000 </v>
   <v>       0.88888889       0.77777778       0.50000000 </v>
  </varray>
 </structure>
</modeling>
