<?xml version="1.0" encoding="ISO-8859-1"?>
<modeling>
 <generator>
  <i name="program" type="string">vasp </i>
  <i name="version" type="string">6.4.1  </i>
  <i name="subversion" type="string">05Apr23 (build Feb 12 2025 00:37:39) complex                          parallel </i>
  <i name="platform" type="string">LinuxIFC </i>
  <i name="date" type="string">2025 02 14 </i>
  <i name="time" type="string">06:14:26 </i>
 </generator>
 <incar>
  <i type="string" name="SYSTEM">SCF</i>
  <i type="int" name="ISTART">     0</i>
  <i type="int" name="ICHARG">     2</i>
  <i type="int" name="NELM">    60</i>
  <i type="int" name="NELMIN">     6</i>
  <i name="EDIFF">      0.00000100</i>
  <i name="EDIFFG">     -0.00000100</i>
  <i name="ENCUT">    600.00000000</i>
  <i type="string" name="LREAL">Auto</i>
  <i type="int" name="ISMEAR">     0</i>
  <i name="SIGMA">      0.05000000</i>
  <i type="logical" name="LWAVE"> F  </i>
  <i type="logical" name="LCHARG"> F  </i>
 </incar>
 <primitive_cell>
  <structure name="primitive_cell" >
   <crystal>
    <varray name="basis" >
     <v>       7.40170591       0.00000000       0.00000000 </v>
     <v>      -3.70085295       6.41006527       0.00000000 </v>
     <v>       0.00000000       0.00000000      20.00000000 </v>
    </varray>
    <i name="volume">    948.90835877 </i>
    <varray name="rec_basis" >
     <v>       0.13510399       0.07800233       0.00000000 </v>
     <v>       0.00000000       0.15600465       0.00000000 </v>
     <v>       0.00000000       0.00000000       0.05000000 </v>
    </varray>
   </crystal>
   <varray name="positions" >
    <v>       0.99942898       0.00156005       0.50000000 </v>
    <v>       0.33333333       0.00000000       0.50000000 </v>
    <v>       0.66666667       0.00000000       0.50000000 </v>
    <v>       1.00000000       0.33333333       0.50000000 </v>
    <v>       0.33333333       0.33333333       0.50000000 </v>
    <v>       0.66666667       0.33333333       0.50000000 </v>
    <v>       1.00000000       0.66666667       0.50000000 </v>
    <v>       0.33333333       0.66666667       0.50000000 </v>
    <v>       0.66666667       0.66666667       0.50000000 </v>
    <v>       0.22222222       0.11111111       0.50000000 </v>
    <v>       0.55555556       0.11111111       0.50000000 </v>
    <v>       0.88888889       0.11111111       0.50000000 </v>
    <v>       0.22222222       0.44444444       0.50000000 </v>
    <v>       0.55555556       0.44444444       0.50000000 </v>
    <v>       0.88888889       0.44444444       0.50000000 </v>
    <v>       0.22222222       0.77777778       0.50000000 </v>
    <v>       0.55555556       0.77777778       0.50000000 </v>
    <v>       0.88888889       0.77777778       0.50000000 </v>
   </varray>
  </structure>
  <varray name="primitive_index" >
   <v type="int" >        1 </v>
   <v type="int" >        2 </v>
   <v type="int" >        3 </v>
   <v type="int" >        4 </v>
   <v type="int" >        5 </v>
   <v type="int" >        6 </v>
   <v type="int" >        7 </v>
   <v type="int" >        8 </v>
   <v type="int" >        9 </v>
   <v type="int" >       10 </v>
   <v type="int" >       11 </v>
   <v type="int" >       12 </v>
   <v type="int" >       13 </v>
   <v type="int" >       14 </v>
   <v type="int" >       15 </v>
   <v type="int" >       16 </v>
   <v type="int" >       17 </v>
   <v type="int" >       18 </v>
  </varray>
 </primitive_cell>
 <kpoints>
  <generation param="Gamma">
   <v type="int" name="divisions">       7        7        1 </v>
   <v name="usershift">      0.00000000       0.00000000       0.00000000 </v>
   <v name="genvec1">      0.14285714       0.00000000       0.00000000 </v>
   <v name="genvec2">      0.00000000       0.14285714       0.00000000 </v>
   <v name="genvec3">      0.00000000       0.00000000       1.00000000 </v>
   <v name="shift">      0.00000000       0.00000000       0.00000000 </v>
  </generation>
  <varray name="kpointlist" >
   <v>       0.00000000       0.00000000       0.00000000 </v>
   <v>       0.14285714       0.00000000       0.00000000 </v>
   <v>       0.00000000       0.14285714       0.00000000 </v>
   <v>      -0.14285714       0.14285714       0.00000000 </v>
   <v>       0.28571429       0.00000000       0.00000000 </v>
   <v>       0.00000000       0.28571429       0.00000000 </v>
   <v>      -0.28571429       0.28571429       0.00000000 </v>
   <v>       0.42857143       0.00000000       0.00000000 </v>
   <v>       0.00000000       0.42857143       0.00000000 </v>
   <v>      -0.42857143       0.42857143       0.00000000 </v>
   <v>       0.14285714       0.14285714       0.00000000 </v>
   <v>      -0.14285714       0.28571429       0.00000000 </v>
   <v>      -0.28571429       0.14285714       0.00000000 </v>
   <v>       0.28571429       0.14285714       0.00000000 </v>
   <v>      -0.14285714       0.42857143       0.00000000 </v>
   <v>      -0.42857143       0.28571429       0.00000000 </v>
   <v>      -0.28571429       0.42857143       0.00000000 </v>
   <v>       0.14285714       0.28571429       0.00000000 </v>
   <v>       0.42857143      -0.14285714       0.00000000 </v>
   <v>       0.42857143       0.14285714       0.00000000 </v>
   <v>      -0.14285714      -0.42857143       0.00000000 </v>
   <v>       0.42857143       0.42857143       0.00000000 </v>
   <v>       0.28571429       0.28571429       0.00000000 </v>
   <v>      -0.28571429      -0.42857143       0.00000000 </v>
   <v>       0.42857143       0.28571429       0.00000000 </v>
  </varray>
  <varray name="weights" >
   <v>       0.02040816 </v>
   <v>       0.04081633 </v>
   <v>       0.04081633 </v>
   <v>       0.04081633 </v>
   <v>       0.04081633 </v>
   <v>       0.04081633 </v>
   <v>       0.04081633 </v>
   <v>       0.04081633 </v>
   <v>       0.04081633 </v>
   <v>       0.04081633 </v>
   <v>       0.04081633 </v>
   <v>       0.04081633 </v>
   <v>       0.04081633 </v>
   <v>       0.04081633 </v>
   <v>       0.04081633 </v>
   <v>       0.04081633 </v>
   <v>       0.04081633 </v>
   <v>       0.04081633 </v>
   <v>       0.04081633 </v>
   <v>       0.04081633 </v>
   <v>       0.04081633 </v>
   <v>       0.04081633 </v>
   <v>       0.04081633 </v>
   <v>       0.04081633 </v>
   <v>       0.04081633 </v>
  </varray>
 </kpoints>
 <parameters>
  <separator name="general" >
   <i type="string" name="SYSTEM">SCF</i>
   <i type="logical" name="LCOMPAT"> F  </i>
  </separator>
  <separator name="electronic" >
   <i type="string" name="PREC">normal</i>
   <i name="ENMAX">    600.00000000</i>
   <i name="ENAUG">    644.87300000</i>
   <i name="EDIFF">      0.00000100</i>
   <i type="int" name="IALGO">    38</i>
   <i type="int" name="IWAVPR">    10</i>
   <i type="int" name="NBANDS">    46</i>
   <i type="int" name="NBANDSLOW">    -1</i>
   <i type="int" name="NBANDSHIGH">    -1</i>
   <i name="NELECT">     72.00000000</i>
   <i type="int" name="TURBO">     0</i>
   <i type="int" name="IRESTART">     0</i>
   <i type="int" name="NREBOOT">     0</i>
   <i type="int" name="NMIN">     0</i>
   <i name="EREF">      0.00000000</i>
   <separator name="electronic smearing" >
    <i type="int" name="ISMEAR">     0</i>
    <i name="SIGMA">      0.05000000</i>
    <i name="KSPACING">      0.50000000</i>
    <i type="logical" name="KGAMMA"> T  </i>
    <i type="logical" name="KBLOWUP"> T  </i>
   </separator>
   <separator name="electronic projectors" >
    <i type="logical" name="LREAL"> T  </i>
    <v name="ROPT">     -0.00050000</v>
    <i type="int" name="LMAXPAW">  -100</i>
    <i type="int" name="LMAXMIX">     2</i>
    <i type="logical" name="NLSPLINE"> F  </i>
   </separator>
   <separator name="electronic startup" >
    <i type="int" name="ISTART">     0</i>
    <i type="int" name="ICHARG">     2</i>
    <i type="int" name="INIWAV">     1</i>
   </separator>
   <separator name="electronic spin" >
    <i type="int" name="ISPIN">     1</i>
    <i type="logical" name="LNONCOLLINEAR"> F  </i>
    <v name="MAGMOM">      1.00000000      1.00000000      1.00000000      1.00000000      1.00000000      1.00000000      1.00000000      1.00000000      1.00000000      1.00000000      1.00000000      1.00000000      1.00000000      1.00000000      1.00000000      1.00000000      1.00000000      1.00000000</v>
    <i name="NUPDOWN">     -1.00000000</i>
    <i type="logical" name="LSORBIT"> F  </i>
    <v name="SAXIS">      0.00000000      0.00000000      1.00000000</v>
    <i type="logical" name="LSPIRAL"> F  </i>
    <v name="QSPIRAL">      0.00000000      0.00000000      0.00000000</v>
    <i type="logical" name="LZEROZ"> F  </i>
   </separator>
   <separator name="electronic exchange-correlation" >
    <i type="logical" name="LASPH"> F  </i>
    <i type="logical" name="LMETAGGA"> F  </i>
   </separator>
   <separator name="electronic convergence" >
    <i type="int" name="NELM">    60</i>
    <i type="int" name="NELMDL">    -5</i>
    <i type="int" name="NELMIN">     6</i>
    <i name="ENINI">    600.00000000</i>
    <separator name="electronic convergence detail" >
     <i type="logical" name="LDIAG"> T  </i>
     <i type="logical" name="LSUBROT"> F  </i>
     <i name="WEIMIN">      0.00000000</i>
     <i name="EBREAK">      0.00000000</i>
     <i name="DEPER">      0.30000000</i>
     <i type="int" name="NRMM">     4</i>
     <i name="TIME">      0.40000000</i>
    </separator>
   </separator>
   <separator name="electronic mixer" >
    <i name="AMIX">      0.40000000</i>
    <i name="BMIX">      1.00000000</i>
    <i name="AMIN">      0.10000000</i>
    <i name="AMIX_MAG">      1.60000000</i>
    <i name="BMIX_MAG">      1.00000000</i>
    <separator name="electronic mixer details" >
     <i type="int" name="IMIX">     4</i>
     <i type="logical" name="MIXFIRST"> F  </i>
     <i type="int" name="MAXMIX">   -45</i>
     <i name="WC">    100.00000000</i>
     <i type="int" name="INIMIX">     1</i>
     <i type="int" name="MIXPRE">     1</i>
     <i type="int" name="MREMOVE">     5</i>
    </separator>
   </separator>
   <separator name="electronic dipolcorrection" >
    <i type="logical" name="LDIPOL"> F  </i>
    <i type="logical" name="LMONO"> F  </i>
    <i type="int" name="IDIPOL">     0</i>
    <i name="EPSILON">      1.00000000</i>
    <v name="DIPOL">   -100.00000000   -100.00000000   -100.00000000</v>
    <i name="EFIELD">      0.00000000</i>
   </separator>
  </separator>
  <separator name="grids" >
   <i type="int" name="NGX">    48</i>
   <i type="int" name="NGY">    48</i>
   <i type="int" name="NGZ">   120</i>
   <i type="int" name="NGXF">    96</i>
   <i type="int" name="NGYF">    96</i>
   <i type="int" name="NGZF">   240</i>
   <i type="logical" name="ADDGRID"> F  </i>
  </separator>
  <separator name="ionic" >
   <i type="int" name="NSW">     0</i>
   <i type="int" name="IBRION">    -1</i>
   <i type="int" name="MDALGO">     0</i>
   <i type="int" name="ISIF">     2</i>
   <i name="PSTRESS">      0.00000000</i>
   <i name="EDIFFG">     -0.00000100</i>
   <i type="int" name="NFREE">     0</i>
   <i name="POTIM">      0.50000000</i>
   <i name="SMASS">     -3.00000000</i>
   <i name="SCALEE">      1.00000000</i>
  </separator>
  <separator name="ionic md" >
   <i name="TEBEG">      0.00010000</i>
   <i name="TEEND">      0.00010000</i>
   <i type="int" name="NBLOCK">     1</i>
   <i type="int" name="KBLOCK">     1</i>
   <i type="int" name="NPACO">   256</i>
   <i name="APACO">     10.00000000</i>
  </separator>
  <separator name="symmetry" >
   <i type="int" name="ISYM">     2</i>
   <i name="SYMPREC">      0.00001000</i>
  </separator>
  <separator name="dos" >
   <i type="int" name="LORBIT">     0</i>
   <v name="RWIGS">     -1.00000000</v>
   <i type="int" name="NEDOS">   301</i>
   <i name="EMIN">     10.00000000</i>
   <i name="EMAX">    -10.00000000</i>
   <i name="EFERMI">      0.00000000</i>
  </separator>
  <separator name="writing" >
   <i type="int" name="NWRITE">     2</i>
   <i type="logical" name="LWAVE"> F  </i>
   <i type="logical" name="LDOWNSAMPLE"> F  </i>
   <i type="logical" name="LCHARG"> F  </i>
   <i type="logical" name="LPARD"> F  </i>
   <i type="logical" name="LVTOT"> F  </i>
   <i type="logical" name="LVHAR"> F  </i>
   <i type="logical" name="LELF"> F  </i>
   <i type="logical" name="LOPTICS"> F  </i>
   <v name="STM">      0.00000000      0.00000000      0.00000000      0.00000000      0.00000000      0.00000000      0.00000000</v>
  </separator>
  <separator name="performance" >
   <i type="int" name="NPAR">     2</i>
   <i type="int" name="NSIM">     4</i>
   <i type="int" name="NBLK">    -1</i>
   <i type="logical" name="LPLANE"> T  </i>
   <i type="logical" name="LSCALAPACK"> T  </i>
   <i type="logical" name="LSCAAWARE"> F  </i>
   <i type="logical" name="LSCALU"> F  </i>
   <i type="logical" name="LASYNC"> F  </i>
   <i type="logical" name="LORBITALREAL"> F  </i>
  </separator>
  <separator name="miscellaneous" >
   <i type="int" name="IDIOT">     3</i>
   <i type="int" name="PHON_NSTRUCT">    -1</i>
   <i type="logical" name="LMUSIC"> F  </i>
   <v name="POMASS">     12.01100000</v>
   <v name="DARWINR">      0.00000000</v>
   <v name="DARWINV">      1.00000000</v>
   <i type="logical" name="LCORR"> T  </i>
  </separator>
  <i type="logical" name="GGA_COMPAT"> T  </i>
  <i type="logical" name="LBERRY"> F  </i>
  <i type="int" name="ICORELEVEL">     0</i>
  <i type="logical" name="LDAU"> F  </i>
  <i type="int" name="I_CONSTRAINED_M">     0</i>
  <separator name="electronic exchange-correlation" >
   <i type="string" name="GGA">--</i>
   <i type="int" name="VOSKOWN">     0</i>
   <i type="logical" name="LHFCALC"> F  </i>
   <i type="string" name="PRECFOCK"></i>
   <i type="logical" name="LSYMGRAD"> F  </i>
   <i type="logical" name="LHFONE"> F  </i>
   <i type="logical" name="LRHFCALC"> F  </i>
   <i type="logical" name="LTHOMAS"> F  </i>
   <i type="logical" name="LMODELHF"> F  </i>
   <i type="logical" name="LFOCKACE"> F  </i>
   <i name="ENCUT4O">     -1.00000000</i>
   <i type="int" name="EXXOEP">     0</i>
   <i type="int" name="FOURORBIT">     0</i>
   <i name="AEXX">      0.00000000</i>
   <i name="HFALPHA">      0.00000000</i>
   <i name="MCALPHA">      0.00000000</i>
   <i name="ALDAX">      1.00000000</i>
   <i name="AGGAX">      1.00000000</i>
   <i name="ALDAC">      1.00000000</i>
   <i name="AGGAC">      1.00000000</i>
   <i type="int" name="NKREDX">     1</i>
   <i type="int" name="NKREDY">     1</i>
   <i type="int" name="NKREDZ">     1</i>
   <i type="logical" name="SHIFTRED"> F  </i>
   <i type="logical" name="ODDONLY"> F  </i>
   <i type="logical" name="EVENONLY"> F  </i>
   <i type="int" name="LMAXFOCK">     0</i>
   <i type="int" name="NMAXFOCKAE">     0</i>
   <i type="logical" name="LFOCKAEDFT"> F  </i>
   <i name="HFSCREEN">      0.00000000</i>
   <i name="HFSCREENC">      0.00000000</i>
   <i type="int" name="NBANDSGWLOW">     0</i>
  </separator>
  <separator name="vdW DFT" >
   <i type="logical" name="LUSE_VDW"> F  </i>
   <i type="int" name="IVDW_NL">     1</i>
   <i type="logical" name="LSPIN_VDW"> F  </i>
   <i name="Zab_VDW">     -0.84910000</i>
   <i name="PARAM1">      0.12340000</i>
   <i name="PARAM2">      1.00000000</i>
   <i name="PARAM3">      0.00000000</i>
  </separator>
  <separator name="model GW" >
   <i type="int" name="MODEL_GW">     0</i>
   <i name="MODEL_EPS0">     31.63027863</i>
   <i name="MODEL_ALPHA">      1.00000000</i>
  </separator>
  <separator name="linear response parameters" >
   <i type="logical" name="LEPSILON"> F  </i>
   <i type="logical" name="LRPA"> F  </i>
   <i type="logical" name="LNABLA"> F  </i>
   <i type="logical" name="LVEL"> F  </i>
   <i name="CSHIFT">      0.10000000</i>
   <i name="OMEGAMAX">     -1.00000000</i>
   <i name="DEG_THRESHOLD">      0.00200000</i>
   <i name="RTIME">     -0.10000000</i>
   <i name="WPLASMAI">      0.00000000</i>
   <v name="DFIELD">      0.00000000      0.00000000      0.00000000</v>
   <v name="WPLASMA">      0.00000000      0.00000000      0.00000000      0.00000000      0.00000000      0.00000000      0.00000000      0.00000000      0.00000000</v>
  </separator>
  <separator name="orbital magnetization" >
   <i type="logical" name="NUCIND"> F  </i>
   <v name="MAGPOS">      0.00000000      0.00000000      0.00000000</v>
   <i type="logical" name="LNICSALL"> T  </i>
   <i type="logical" name="ORBITALMAG"> F  </i>
   <i type="logical" name="LMAGBLOCH"> F  </i>
   <i type="logical" name="LCHIMAG"> F  </i>
   <i type="logical" name="LGAUGE"> T  </i>
   <i type="int" name="MAGATOM">     0</i>
   <v name="MAGDIPOL">      0.00000000      0.00000000      0.00000000</v>
   <v name="AVECCONST">      0.00000000      0.00000000      0.00000000</v>
  </separator>
  <separator name="response functions" >
   <i type="logical" name="LALL_IN_ONE"> F  </i>
   <i type="int" name="IALL_IN_ONE">    -1</i>
   <i type="int" name="NBANDS_WAVE">    -1</i>
   <i type="logical" name="LFINITE_TEMPERATURE"> F  </i>
   <i type="logical" name="LADDER"> F  </i>
   <i type="logical" name="LRPAFORCE"> F  </i>
   <i type="logical" name="LFXC"> F  </i>
   <i type="logical" name="LHARTREE"> T  </i>
   <i type="int" name="IBSE">     0</i>
   <v type="int" name="KPOINT">    -1     0     0     0</v>
   <i type="logical" name="LTCTC"> F  </i>
   <i type="logical" name="LTCTE"> F  </i>
   <i type="logical" name="LTETE"> F  </i>
   <i type="logical" name="LTRIPLET"> F  </i>
   <i type="logical" name="LFXCEPS"> F  </i>
   <i type="logical" name="LFXHEG"> F  </i>
   <i type="int" name="NATURALO">     2</i>
   <i type="logical" name="LHOLEGF"> F  </i>
   <i type="logical" name="L2ORDER"> F  </i>
   <i type="logical" name="LDMP1"> F  </i>
   <i type="logical" name="LMP2LT"> F  </i>
   <i type="logical" name="LSMP2LT"> F  </i>
   <i type="logical" name="LGWLF"> F  </i>
   <i name="ENCUTGW">     -1.60000002</i>
   <i name="ENCUTGWSOFT">     -1.60000002</i>
   <i name="ENCUTLF">     -1.00000000</i>
   <i type="logical" name="LESF_SPLINES"> F  </i>
   <i type="int" name="LMAXMP2">    -1</i>
   <i name="SCISSOR">      0.00000000</i>
   <i type="int" name="NOMEGA">     0</i>
   <i type="int" name="NOMEGAR">     0</i>
   <i type="int" name="NBANDSGW">    -1</i>
   <i type="int" name="NBANDSO">    -1</i>
   <i type="int" name="NBANDSV">    -1</i>
   <i type="int" name="NELMGW">     1</i>
   <i type="int" name="NELMHF">     1</i>
   <i type="int" name="DIM">     3</i>
   <i type="int" name="IESPILON">     4</i>
   <i type="int" name="ANTIRES">     0</i>
   <i name="OMEGAMAX">    -30.00000000</i>
   <i name="OMEGAMIN">    -30.00000000</i>
   <i name="OMEGATL">   -200.00000000</i>
   <i type="int" name="OMEGAGRID">     0</i>
   <i name="CSHIFT">     -0.10000000</i>
   <i type="logical" name="LSELFENERGY"> F  </i>
   <i type="logical" name="LSPECTRAL"> F  </i>
   <i type="logical" name="LSPECTRALGW"> F  </i>
   <i type="logical" name="LSINGLES"> F  </i>
   <i type="logical" name="LFERMIGW"> F  </i>
   <i type="logical" name="ODDONLYGW"> F  </i>
   <i type="logical" name="EVENONLYGW"> F  </i>
   <i type="int" name="NKREDLFX">     1</i>
   <i type="int" name="NKREDLFY">     1</i>
   <i type="int" name="NKREDLFZ">     1</i>
   <i type="int" name="MAXMEM">  2800</i>
   <i type="int" name="TELESCOPE">     0</i>
   <i type="int" name="NTAUPAR">    -1</i>
   <i type="int" name="NOMEGAPAR">    -1</i>
   <i name="DAMP_NEWTON">      0.80000001</i>
   <i name="LAMBDA">      1.00000000</i>
  </separator>
  <separator name="External order field" >
   <i name="OFIELD_KAPPA">      0.00000000</i>
   <v name="OFIELD_K">      0.00000000      0.00000000      0.00000000</v>
   <i name="OFIELD_Q6_NEAR">      0.00000000</i>
   <i name="OFIELD_Q6_FAR">      0.00000000</i>
   <i name="OFIELD_A">      0.00000000</i>
  </separator>
  <separator name="optional k-points parameters" >
   <i type="int" name="KPOINTS_OPT_MODE">     1</i>
   <i type="logical" name="LKPOINTS_OPT"> F  </i>
  </separator>
 </parameters>
 <atominfo>
  <atoms>      18 </atoms>
  <types>       1 </types>
  <array name="atoms" >
   <dimension dim="1">ion</dimension>
   <field type="string">element</field>
   <field type="int">atomtype</field>
   <set>
    <rc><c>C </c><c>   1</c></rc>
    <rc><c>C </c><c>   1</c></rc>
    <rc><c>C </c><c>   1</c></rc>
    <rc><c>C </c><c>   1</c></rc>
    <rc><c>C </c><c>   1</c></rc>
    <rc><c>C </c><c>   1</c></rc>
    <rc><c>C </c><c>   1</c></rc>
    <rc><c>C </c><c>   1</c></rc>
    <rc><c>C </c><c>   1</c></rc>
    <rc><c>C </c><c>   1</c></rc>
    <rc><c>C </c><c>   1</c></rc>
    <rc><c>C </c><c>   1</c></rc>
    <rc><c>C </c><c>   1</c></rc>
    <rc><c>C </c><c>   1</c></rc>
    <rc><c>C </c><c>   1</c></rc>
    <rc><c>C </c><c>   1</c></rc>
    <rc><c>C </c><c>   1</c></rc>
    <rc><c>C </c><c>   1</c></rc>
   </set>
  </array>
  <array name="atomtypes" >
   <dimension dim="1">type</dimension>
   <field type="int">atomspertype</field>
   <field type="string">element</field>
   <field>mass</field>
   <field>valence</field>
   <field type="string">pseudopotential</field>
   <set>
    <rc><c>  18</c><c>C </c><c>     12.01100000</c><c>      4.00000000</c><c>  PAW_PBE C 08Apr2002                   </c></rc>
   </set>
  </array>
 </atominfo>
 <structure name="initialpos" >
  <crystal>
   <varray name="basis" >
    <v>       7.40170591       0.00000000       0.00000000 </v>
    <v>      -3.70085295       6.41006527       0.00000000 </v>
    <v>       0.00000000       0.00000000      20.00000000 </v>
   </varray>
   <i name="volume">    948.90835877 </i>
   <varray name="rec_basis" >
    <v>       0.13510399       0.07800233       0.00000000 </v>
    <v>       0.00000000       0.15600465       0.00000000 </v>
    <v>       0.00000000       0.00000000       0.05000000 </v>
   </varray>
  </crystal>
  <varray name="positions" >
   <v>       0.99942898       0.00156005       0.50000000 </v>
   <v>       0.33333333       0.00000000       0.50000000 </v>
   <v>       0.66666667       0.00000000       0.50000000 </v>
   <v>       0.00000000       0.33333333       0.50000000 </v>
   <v>       0.33333333       0.33333333       0.50000000 </v>
   <v>       0.66666667       0.33333333       0.50000000 </v>
   <v>       0.00000000       0.66666667       0.50000000 </v>
   <v>       0.33333333       0.66666667       0.50000000 </v>
   <v>       0.66666667       0.66666667       0.50000000 </v>
   <v>       0.22222222       0.11111111       0.50000000 </v>
   <v>       0.55555556       0.11111111       0.50000000 </v>
   <v>       0.88888889       0.11111111       0.50000000 </v>
   <v>       0.22222222       0.44444444       0.50000000 </v>
   <v>       0.55555556       0.44444444       0.50000000 </v>
   <v>       0.88888889       0.44444444       0.50000000 </v>
   <v>       0.22222222       0.77777778       0.50000000 </v>
   <v>       0.55555556       0.77777778       0.50000000 </v>
   <v>       0.88888889       0.77777778       0.50000000 </v>
  </varray>
 </structure>
 <calculation>
  <scstep>
   <time name="dav">    5.92    6.14</time>
   <time name="total">    6.01    6.24</time>
   <energy>
    <i name="alphaZ">     28.04858418 </i>
    <i name="ewald">  11638.87706462 </i>
    <i name="hartreedc"> -13553.18240391 </i>
    <i name="XCdc">    237.17775480 </i>
    <i name="pawpsdc">   1953.39683484 </i>
    <i name="pawaedc">  -1963.64613940 </i>
    <i name="eentropy">     -0.00841538 </i>
    <i name="bandstr">   -257.79653212 </i>
    <i name="atom">   2648.70517965 </i>
    <i name="e_fr_energy">    731.57192728 </i>
    <i name="e_wo_entrp">    731.58034266 </i>
    <i name="e_0_energy">    731.57613497 </i>
   </energy>
  </scstep>
  <scstep>
   <time name="dav">    7.91    8.22</time>
   <time name="total">    7.91    8.22</time>
   <energy>
    <i name="e_fr_energy">    -23.92104100 </i>
    <i name="e_wo_entrp">    -23.92073848 </i>
    <i name="e_0_energy">    -23.92088974 </i>
   </energy>
  </scstep>
  <scstep>
   <time name="dav">    6.40    6.64</time>
   <time name="total">    6.40    6.64</time>
   <energy>
    <i name="e_fr_energy">   -172.28391654 </i>
    <i name="e_wo_entrp">   -172.28285468 </i>
    <i name="e_0_energy">   -172.28338561 </i>
   </energy>
  </scstep>
  <scstep>
   <time name="dav">    6.32    5.39</time>
   <time name="total">    6.32    5.39</time>
   <energy>
    <i name="e_fr_energy">   -177.34728747 </i>
    <i name="e_wo_entrp">   -177.34530074 </i>
    <i name="e_0_energy">   -177.34629410 </i>
   </energy>
  </scstep>
  <scstep>
   <time name="dav">    7.22    7.49</time>
   <time name="total">    7.48    7.76</time>
   <energy>
    <i name="e_fr_energy">   -177.48433139 </i>
    <i name="e_wo_entrp">   -177.48230725 </i>
    <i name="e_0_energy">   -177.48331932 </i>
   </energy>
  </scstep>
  <scstep>
   <time name="dav">    5.93    6.16</time>
   <time name="total">    6.28    6.52</time>
   <energy>
    <i name="e_fr_energy">   -169.31595554 </i>
    <i name="e_wo_entrp">   -169.31386645 </i>
    <i name="e_0_energy">   -169.31491100 </i>
   </energy>
  </scstep>
  <scstep>
   <time name="dav">    5.90    6.12</time>
   <time name="total">    6.24    6.48</time>
   <energy>
    <i name="e_fr_energy">   -166.14835034 </i>
    <i name="e_wo_entrp">   -166.14623145 </i>
    <i name="e_0_energy">   -166.14729090 </i>
   </energy>
  </scstep>
  <scstep>
   <time name="dav">    6.21    6.44</time>
   <time name="total">    6.57    6.81</time>
   <energy>
    <i name="e_fr_energy">   -166.08545385 </i>
    <i name="e_wo_entrp">   -166.08334762 </i>
    <i name="e_0_energy">   -166.08440074 </i>
   </energy>
  </scstep>
  <scstep>
   <time name="dav">    6.66    5.71</time>
   <time name="total">    7.01    6.08</time>
   <energy>
    <i name="e_fr_energy">   -166.07258007 </i>
    <i name="e_wo_entrp">   -166.07046991 </i>
    <i name="e_0_energy">   -166.07152499 </i>
   </energy>
  </scstep>
  <scstep>
   <time name="dav">    5.79    6.01</time>
   <time name="total">    6.14    6.37</time>
   <energy>
    <i name="e_fr_energy">   -166.05411051 </i>
    <i name="e_wo_entrp">   -166.05199757 </i>
    <i name="e_0_energy">   -166.05305404 </i>
   </energy>
  </scstep>
  <scstep>
   <time name="dav">    5.74    5.96</time>
   <time name="total">    6.10    6.32</time>
   <energy>
    <i name="e_fr_energy">   -166.05719209 </i>
    <i name="e_wo_entrp">   -166.05508127 </i>
    <i name="e_0_energy">   -166.05613668 </i>
   </energy>
  </scstep>
  <scstep>
   <time name="dav">    5.89    6.11</time>
   <time name="total">    6.23    6.47</time>
   <energy>
    <i name="e_fr_energy">   -166.06188904 </i>
    <i name="e_wo_entrp">   -166.05977859 </i>
    <i name="e_0_energy">   -166.06083381 </i>
   </energy>
  </scstep>
  <scstep>
   <time name="dav">    5.64    5.85</time>
   <time name="total">    5.99    6.21</time>
   <energy>
    <i name="e_fr_energy">   -166.06611325 </i>
    <i name="e_wo_entrp">   -166.06400199 </i>
    <i name="e_0_energy">   -166.06505762 </i>
   </energy>
  </scstep>
  <scstep>
   <time name="dav">    5.63    4.68</time>
   <time name="total">    5.99    5.05</time>
   <energy>
    <i name="e_fr_energy">   -166.06987134 </i>
    <i name="e_wo_entrp">   -166.06776003 </i>
    <i name="e_0_energy">   -166.06881568 </i>
   </energy>
  </scstep>
  <scstep>
   <time name="dav">    5.77    5.98</time>
   <time name="total">    6.12    6.34</time>
   <energy>
    <i name="e_fr_energy">   -166.07142006 </i>
    <i name="e_wo_entrp">   -166.06930872 </i>
    <i name="e_0_energy">   -166.07036439 </i>
   </energy>
  </scstep>
  <scstep>
   <time name="dav">    5.93    6.15</time>
   <time name="total">    6.28    6.51</time>
   <energy>
    <i name="e_fr_energy">   -166.07156219 </i>
    <i name="e_wo_entrp">   -166.06945090 </i>
    <i name="e_0_energy">   -166.07050654 </i>
   </energy>
  </scstep>
  <scstep>
   <time name="dav">    5.63    5.85</time>
   <time name="total">    5.98    6.21</time>
   <energy>
    <i name="e_fr_energy">   -166.07177634 </i>
    <i name="e_wo_entrp">   -166.06966519 </i>
    <i name="e_0_energy">   -166.07072077 </i>
   </energy>
  </scstep>
  <scstep>
   <time name="dav">    5.04    5.23</time>
   <time name="total">    5.40    5.61</time>
   <energy>
    <i name="e_fr_energy">   -166.07183384 </i>
    <i name="e_wo_entrp">   -166.06972262 </i>
    <i name="e_0_energy">   -166.07077823 </i>
   </energy>
  </scstep>
  <scstep>
   <time name="dav">    5.02    4.02</time>
   <time name="total">    5.39    4.40</time>
   <energy>
    <i name="e_fr_energy">   -166.07186737 </i>
    <i name="e_wo_entrp">   -166.06975610 </i>
    <i name="e_0_energy">   -166.07081174 </i>
   </energy>
  </scstep>
  <scstep>
   <time name="dav">    4.83    4.98</time>
   <time name="total">    5.20    5.37</time>
   <energy>
    <i name="e_fr_energy">   -166.07189642 </i>
    <i name="e_wo_entrp">   -166.06978519 </i>
    <i name="e_0_energy">   -166.07084081 </i>
   </energy>
  </scstep>
  <scstep>
   <time name="dav">    3.93    4.07</time>
   <time name="total">    4.28    4.44</time>
   <energy>
    <i name="e_fr_energy">   -166.07190605 </i>
    <i name="e_wo_entrp">   -166.06979480 </i>
    <i name="e_0_energy">   -166.07085042 </i>
   </energy>
  </scstep>
  <scstep>
   <time name="dav">    3.88    4.04</time>
   <time name="total">    4.24    4.41</time>
   <energy>
    <i name="e_fr_energy">   -166.07190916 </i>
    <i name="e_wo_entrp">   -166.06979792 </i>
    <i name="e_0_energy">   -166.07085354 </i>
   </energy>
  </scstep>
  <scstep>
   <time name="dav">    3.98    4.14</time>
   <time name="total">    4.06    4.23</time>
   <energy>
    <i name="alphaZ">     28.04858418 </i>
    <i name="ewald">  11638.87706462 </i>
    <i name="hartreedc"> -13861.52544569 </i>
    <i name="XCdc">    247.81451119 </i>
    <i name="pawpsdc">   7452.97972145 </i>
    <i name="pawaedc">  -7465.24316660 </i>
    <i name="eentropy">     -0.00211123 </i>
    <i name="bandstr">   -855.72624718 </i>
    <i name="atom">   2648.70517965 </i>
    <i name="e_fr_energy">   -166.07190961 </i>
    <i name="e_wo_entrp">   -166.06979838 </i>
    <i name="e_0_energy">   -166.07085399 </i>
   </energy>
  </scstep>
  <structure>
   <crystal>
    <varray name="basis" >
     <v>       7.40170591       0.00000000       0.00000000 </v>
     <v>      -3.70085295       6.41006527       0.00000000 </v>
     <v>       0.00000000       0.00000000      20.00000000 </v>
    </varray>
    <i name="volume">    948.90835877 </i>
    <varray name="rec_basis" >
     <v>       0.13510399       0.07800233       0.00000000 </v>
     <v>       0.00000000       0.15600465       0.00000000 </v>
     <v>       0.00000000       0.00000000       0.05000000 </v>
    </varray>
   </crystal>
   <varray name="positions" >
    <v>       0.99942898       0.00156005       0.50000000 </v>
    <v>       0.33333333       0.00000000       0.50000000 </v>
    <v>       0.66666667       0.00000000       0.50000000 </v>
    <v>       0.00000000       0.33333333       0.50000000 </v>
    <v>       0.33333333       0.33333333       0.50000000 </v>
    <v>       0.66666667       0.33333333       0.50000000 </v>
    <v>       0.00000000       0.66666667       0.50000000 </v>
    <v>       0.33333333       0.66666667       0.50000000 </v>
    <v>       0.66666667       0.66666667       0.50000000 </v>
    <v>       0.22222222       0.11111111       0.50000000 </v>
    <v>       0.55555556       0.11111111       0.50000000 </v>
    <v>       0.88888889       0.11111111       0.50000000 </v>
    <v>       0.22222222       0.44444444       0.50000000 </v>
    <v>       0.55555556       0.44444444       0.50000000 </v>
    <v>       0.88888889       0.44444444       0.50000000 </v>
    <v>       0.22222222       0.77777778       0.50000000 </v>
    <v>       0.55555556       0.77777778       0.50000000 </v>
    <v>       0.88888889       0.77777778       0.50000000 </v>
   </varray>
  </structure>
  <varray name="forces" >
   <v>       0.61549078      -0.59912624      -0.00000000 </v>
   <v>      -0.03701606      -0.01079406      -0.00000000 </v>
   <v>      -0.06437691      -0.03805282      -0.00000000 </v>
   <v>      -0.01364338       0.07844554      -0.00000000 </v>
   <v>       0.02463546      -0.01461493      -0.00000000 </v>
   <v>      -0.03040312       0.02998328      -0.00000000 </v>
   <v>      -0.03948985       0.04985737      -0.00000000 </v>
   <v>      -0.03042893       0.02998288      -0.00000000 </v>
   <v>       0.05126618       0.01268278      -0.00000000 </v>
   <v>      -0.14754178       0.08552138       0.00000000 </v>
   <v>       0.00135333      -0.02447831      -0.00000000 </v>
   <v>      -0.27272385       0.20228711       0.00000000 </v>
   <v>      -0.02210520      -0.03096634      -0.00000000 </v>
   <v>       0.02906896      -0.01704794      -0.00000000 </v>
   <v>       0.00880553       0.00325465       0.00000000 </v>
   <v>       0.04081616      -0.01461889      -0.00000000 </v>
   <v>      -0.00481931       0.03169185      -0.00000000 </v>
   <v>      -0.10888801       0.22599269       0.00000000 </v>
  </varray>
  <varray name="stress" >
   <v>      -0.06758115      -0.08022640       0.00000000 </v>
   <v>      -0.08022638      -0.21047057       0.00000000 </v>
   <v>       0.00000000       0.00000000      -0.56486670 </v>
  </varray>
  <energy>
   <i name="e_fr_energy">   -166.07190961 </i>
   <i name="e_wo_entrp">   -166.06979838 </i>
   <i name="e_0_energy">   -166.07085399 </i>
  </energy>
  <time name="totalsc">  142.78  143.44</time>
  <eigenvalues>
   <array>
    <dimension dim="1">band</dimension>
    <dimension dim="2">kpoint</dimension>
    <dimension dim="3">spin</dimension>
    <field>eigene</field>
    <field>occ</field>
    <set>
     <set comment="spin 1">
      <set comment="kpoint 1">
       <r>  -22.2560    1.0000 </r>
       <r>  -19.7049    1.0000 </r>
       <r>  -19.6758    1.0000 </r>
       <r>  -19.6741    1.0000 </r>
       <r>  -19.6716    1.0000 </r>
       <r>  -19.6683    1.0000 </r>
       <r>  -19.6458    1.0000 </r>
       <r>  -15.3644    1.0000 </r>
       <r>  -15.3407    1.0000 </r>
       <r>  -15.3345    1.0000 </r>
       <r>  -15.3238    1.0000 </r>
       <r>  -13.2932    1.0000 </r>
       <r>  -13.2865    1.0000 </r>
       <r>  -12.4086    1.0000 </r>
       <r>  -12.3842    1.0000 </r>
       <r>  -12.3756    1.0000 </r>
       <r>  -12.3738    1.0000 </r>
       <r>  -12.3602    1.0000 </r>
       <r>  -12.3451    1.0000 </r>
       <r>  -10.3600    1.0000 </r>
       <r>   -8.5614    1.0000 </r>
       <r>   -8.5293    1.0000 </r>
       <r>   -8.5236    1.0000 </r>
       <r>   -8.5230    1.0000 </r>
       <r>   -8.5187    1.0000 </r>
       <r>   -8.4850    1.0000 </r>
       <r>   -7.3975    1.0000 </r>
       <r>   -7.3723    1.0000 </r>
       <r>   -7.3713    1.0000 </r>
       <r>   -7.3692    1.0000 </r>
       <r>   -7.3684    1.0000 </r>
       <r>   -7.3471    1.0000 </r>
       <r>   -5.8073    1.0000 </r>
       <r>   -5.7608    1.0000 </r>
       <r>   -2.7777    0.7385 </r>
       <r>   -2.7553    0.5013 </r>
       <r>   -2.7527    0.4731 </r>
       <r>   -2.7353    0.2871 </r>
       <r>    0.5196    0.0000 </r>
       <r>    1.3118    0.0000 </r>
       <r>    1.6347    0.0000 </r>
       <r>    2.1084    0.0000 </r>
       <r>    2.1421    0.0000 </r>
       <r>    2.1446    0.0000 </r>
       <r>    2.1462    0.0000 </r>
       <r>    2.1503    0.0000 </r>
      </set>
      <set comment="kpoint 2">
       <r>  -22.2025    1.0000 </r>
       <r>  -20.3494    1.0000 </r>
       <r>  -19.9951    1.0000 </r>
       <r>  -19.9736    1.0000 </r>
       <r>  -19.2734    1.0000 </r>
       <r>  -19.2517    1.0000 </r>
       <r>  -18.9058    1.0000 </r>
       <r>  -16.0058    1.0000 </r>
       <r>  -15.9849    1.0000 </r>
       <r>  -14.9234    1.0000 </r>
       <r>  -14.9036    1.0000 </r>
       <r>  -13.5962    1.0000 </r>
       <r>  -12.9821    1.0000 </r>
       <r>  -12.9660    1.0000 </r>
       <r>  -12.9584    1.0000 </r>
       <r>  -12.9477    1.0000 </r>
       <r>  -11.7464    1.0000 </r>
       <r>  -11.7271    1.0000 </r>
       <r>  -11.1145    1.0000 </r>
       <r>  -10.2960    1.0000 </r>
       <r>   -8.8763    1.0000 </r>
       <r>   -8.8555    1.0000 </r>
       <r>   -8.8263    1.0000 </r>
       <r>   -8.5175    1.0000 </r>
       <r>   -8.4971    1.0000 </r>
       <r>   -8.1340    1.0000 </r>
       <r>   -8.1278    1.0000 </r>
       <r>   -7.7225    1.0000 </r>
       <r>   -7.7038    1.0000 </r>
       <r>   -6.9317    1.0000 </r>
       <r>   -6.9132    1.0000 </r>
       <r>   -6.5580    1.0000 </r>
       <r>   -6.0035    1.0000 </r>
       <r>   -5.9006    1.0000 </r>
       <r>   -3.5363    1.0000 </r>
       <r>   -3.5169    1.0000 </r>
       <r>   -2.0157    0.0000 </r>
       <r>   -1.9936    0.0000 </r>
       <r>    0.5922    0.0000 </r>
       <r>    0.8777    0.0000 </r>
       <r>    1.3853    0.0000 </r>
       <r>    1.4592    0.0000 </r>
       <r>    1.4869    0.0000 </r>
       <r>    1.7092    0.0000 </r>
       <r>    2.6301    0.0000 </r>
       <r>    2.7465    0.0000 </r>
      </set>
      <set comment="kpoint 3">
       <r>  -22.2025    1.0000 </r>
       <r>  -20.3492    1.0000 </r>
       <r>  -19.9926    1.0000 </r>
       <r>  -19.9765    1.0000 </r>
       <r>  -19.2706    1.0000 </r>
       <r>  -19.2545    1.0000 </r>
       <r>  -18.9057    1.0000 </r>
       <r>  -16.0037    1.0000 </r>
       <r>  -15.9864    1.0000 </r>
       <r>  -14.9225    1.0000 </r>
       <r>  -14.9058    1.0000 </r>
       <r>  -13.5925    1.0000 </r>
       <r>  -12.9846    1.0000 </r>
       <r>  -12.9690    1.0000 </r>
       <r>  -12.9560    1.0000 </r>
       <r>  -12.9474    1.0000 </r>
       <r>  -11.7472    1.0000 </r>
       <r>  -11.7309    1.0000 </r>
       <r>  -11.1103    1.0000 </r>
       <r>  -10.2960    1.0000 </r>
       <r>   -8.8728    1.0000 </r>
       <r>   -8.8533    1.0000 </r>
       <r>   -8.8324    1.0000 </r>
       <r>   -8.5148    1.0000 </r>
       <r>   -8.4930    1.0000 </r>
       <r>   -8.1402    1.0000 </r>
       <r>   -8.1285    1.0000 </r>
       <r>   -7.7196    1.0000 </r>
       <r>   -7.7055    1.0000 </r>
       <r>   -6.9289    1.0000 </r>
       <r>   -6.9148    1.0000 </r>
       <r>   -6.5600    1.0000 </r>
       <r>   -5.9919    1.0000 </r>
       <r>   -5.9123    1.0000 </r>
       <r>   -3.5337    1.0000 </r>
       <r>   -3.5191    1.0000 </r>
       <r>   -2.0131    0.0000 </r>
       <r>   -1.9967    0.0000 </r>
       <r>    0.5922    0.0000 </r>
       <r>    0.8826    0.0000 </r>
       <r>    1.3853    0.0000 </r>
       <r>    1.4611    0.0000 </r>
       <r>    1.4818    0.0000 </r>
       <r>    1.7092    0.0000 </r>
       <r>    2.6301    0.0000 </r>
       <r>    2.7478    0.0000 </r>
      </set>
      <set comment="kpoint 4">
       <r>  -22.2025    1.0000 </r>
       <r>  -20.3496    1.0000 </r>
       <r>  -19.9876    1.0000 </r>
       <r>  -19.9809    1.0000 </r>
       <r>  -19.2658    1.0000 </r>
       <r>  -19.2588    1.0000 </r>
       <r>  -18.9061    1.0000 </r>
       <r>  -16.0021    1.0000 </r>
       <r>  -15.9898    1.0000 </r>
       <r>  -14.9184    1.0000 </r>
       <r>  -14.9060    1.0000 </r>
       <r>  -13.6050    1.0000 </r>
       <r>  -12.9789    1.0000 </r>
       <r>  -12.9699    1.0000 </r>
       <r>  -12.9527    1.0000 </r>
       <r>  -12.9463    1.0000 </r>
       <r>  -11.7361    1.0000 </r>
       <r>  -11.7234    1.0000 </r>
       <r>  -11.1270    1.0000 </r>
       <r>  -10.2960    1.0000 </r>
       <r>   -8.8792    1.0000 </r>
       <r>   -8.8599    1.0000 </r>
       <r>   -8.8176    1.0000 </r>
       <r>   -8.5261    1.0000 </r>
       <r>   -8.5056    1.0000 </r>
       <r>   -8.1256    1.0000 </r>
       <r>   -8.1186    1.0000 </r>
       <r>   -7.7186    1.0000 </r>
       <r>   -7.7114    1.0000 </r>
       <r>   -6.9275    1.0000 </r>
       <r>   -6.9206    1.0000 </r>
       <r>   -6.5525    1.0000 </r>
       <r>   -6.0260    1.0000 </r>
       <r>   -5.8778    1.0000 </r>
       <r>   -3.5304    1.0000 </r>
       <r>   -3.5238    1.0000 </r>
       <r>   -2.0072    0.0000 </r>
       <r>   -2.0009    0.0000 </r>
       <r>    0.5922    0.0000 </r>
       <r>    0.8644    0.0000 </r>
       <r>    1.3854    0.0000 </r>
       <r>    1.4734    0.0000 </r>
       <r>    1.4812    0.0000 </r>
       <r>    1.7092    0.0000 </r>
       <r>    2.6301    0.0000 </r>
       <r>    2.7621    0.0000 </r>
      </set>
      <set comment="kpoint 5">
       <r>  -22.0419    1.0000 </r>
       <r>  -20.9268    1.0000 </r>
       <r>  -20.2036    1.0000 </r>
       <r>  -20.1821    1.0000 </r>
       <r>  -18.7663    1.0000 </r>
       <r>  -18.7445    1.0000 </r>
       <r>  -18.0631    1.0000 </r>
       <r>  -16.7559    1.0000 </r>
       <r>  -16.7344    1.0000 </r>
       <r>  -14.7521    1.0000 </r>
       <r>  -14.6335    1.0000 </r>
       <r>  -14.6156    1.0000 </r>
       <r>  -13.5088    1.0000 </r>
       <r>  -13.4913    1.0000 </r>
       <r>  -12.1945    1.0000 </r>
       <r>  -12.1728    1.0000 </r>
       <r>  -11.1100    1.0000 </r>
       <r>  -11.0904    1.0000 </r>
       <r>  -10.1048    1.0000 </r>
       <r>   -9.8572    1.0000 </r>
       <r>   -9.5055    1.0000 </r>
       <r>   -9.4833    1.0000 </r>
       <r>   -9.0407    1.0000 </r>
       <r>   -8.7921    1.0000 </r>
       <r>   -8.7674    1.0000 </r>
       <r>   -8.7492    1.0000 </r>
       <r>   -7.9538    1.0000 </r>
       <r>   -7.9350    1.0000 </r>
       <r>   -7.6746    1.0000 </r>
       <r>   -6.6178    1.0000 </r>
       <r>   -6.3864    1.0000 </r>
       <r>   -6.3681    1.0000 </r>
       <r>   -6.2207    1.0000 </r>
       <r>   -5.7668    1.0000 </r>
       <r>   -4.3080    1.0000 </r>
       <r>   -4.2895    1.0000 </r>
       <r>   -1.2949    0.0000 </r>
       <r>   -1.2711    0.0000 </r>
       <r>   -0.2342    0.0000 </r>
       <r>    0.7737    0.0000 </r>
       <r>    0.8009    0.0000 </r>
       <r>    0.8102    0.0000 </r>
       <r>    1.6061    0.0000 </r>
       <r>    1.9326    0.0000 </r>
       <r>    2.3340    0.0000 </r>
       <r>    2.8514    0.0000 </r>
      </set>
      <set comment="kpoint 6">
       <r>  -22.0419    1.0000 </r>
       <r>  -20.9266    1.0000 </r>
       <r>  -20.2010    1.0000 </r>
       <r>  -20.1851    1.0000 </r>
       <r>  -18.7636    1.0000 </r>
       <r>  -18.7472    1.0000 </r>
       <r>  -18.0632    1.0000 </r>
       <r>  -16.7533    1.0000 </r>
       <r>  -16.7363    1.0000 </r>
       <r>  -14.7489    1.0000 </r>
       <r>  -14.6326    1.0000 </r>
       <r>  -14.6181    1.0000 </r>
       <r>  -13.5087    1.0000 </r>
       <r>  -13.4944    1.0000 </r>
       <r>  -12.1906    1.0000 </r>
       <r>  -12.1748    1.0000 </r>
       <r>  -11.1123    1.0000 </r>
       <r>  -11.0951    1.0000 </r>
       <r>  -10.1049    1.0000 </r>
       <r>   -9.8522    1.0000 </r>
       <r>   -9.5019    1.0000 </r>
       <r>   -9.4826    1.0000 </r>
       <r>   -9.0458    1.0000 </r>
       <r>   -8.7926    1.0000 </r>
       <r>   -8.7638    1.0000 </r>
       <r>   -8.7441    1.0000 </r>
       <r>   -7.9508    1.0000 </r>
       <r>   -7.9367    1.0000 </r>
       <r>   -7.6813    1.0000 </r>
       <r>   -6.6084    1.0000 </r>
       <r>   -6.3837    1.0000 </r>
       <r>   -6.3697    1.0000 </r>
       <r>   -6.2304    1.0000 </r>
       <r>   -5.7700    1.0000 </r>
       <r>   -4.3054    1.0000 </r>
       <r>   -4.2914    1.0000 </r>
       <r>   -1.2923    0.0000 </r>
       <r>   -1.2747    0.0000 </r>
       <r>   -0.2279    0.0000 </r>
       <r>    0.7760    0.0000 </r>
       <r>    0.7960    0.0000 </r>
       <r>    0.8102    0.0000 </r>
       <r>    1.6061    0.0000 </r>
       <r>    1.9326    0.0000 </r>
       <r>    2.3340    0.0000 </r>
       <r>    2.8514    0.0000 </r>
      </set>
      <set comment="kpoint 7">
       <r>  -22.0420    1.0000 </r>
       <r>  -20.9270    1.0000 </r>
       <r>  -20.1959    1.0000 </r>
       <r>  -20.1893    1.0000 </r>
       <r>  -18.7593    1.0000 </r>
       <r>  -18.7517    1.0000 </r>
       <r>  -18.0626    1.0000 </r>
       <r>  -16.7507    1.0000 </r>
       <r>  -16.7405    1.0000 </r>
       <r>  -14.7618    1.0000 </r>
       <r>  -14.6269    1.0000 </r>
       <r>  -14.6172    1.0000 </r>
       <r>  -13.5014    1.0000 </r>
       <r>  -13.4916    1.0000 </r>
       <r>  -12.1886    1.0000 </r>
       <r>  -12.1822    1.0000 </r>
       <r>  -11.0973    1.0000 </r>
       <r>  -11.0834    1.0000 </r>
       <r>  -10.1046    1.0000 </r>
       <r>   -9.8721    1.0000 </r>
       <r>   -9.5071    1.0000 </r>
       <r>   -9.4910    1.0000 </r>
       <r>   -9.0282    1.0000 </r>
       <r>   -8.7908    1.0000 </r>
       <r>   -8.7799    1.0000 </r>
       <r>   -8.7599    1.0000 </r>
       <r>   -7.9498    1.0000 </r>
       <r>   -7.9427    1.0000 </r>
       <r>   -7.6574    1.0000 </r>
       <r>   -6.6412    1.0000 </r>
       <r>   -6.3823    1.0000 </r>
       <r>   -6.3753    1.0000 </r>
       <r>   -6.1963    1.0000 </r>
       <r>   -5.7580    1.0000 </r>
       <r>   -4.3029    1.0000 </r>
       <r>   -4.2963    1.0000 </r>
       <r>   -1.2851    0.0000 </r>
       <r>   -1.2786    0.0000 </r>
       <r>   -0.2511    0.0000 </r>
       <r>    0.7870    0.0000 </r>
       <r>    0.7944    0.0000 </r>
       <r>    0.8102    0.0000 </r>
       <r>    1.6061    0.0000 </r>
       <r>    1.9326    0.0000 </r>
       <r>    2.3341    0.0000 </r>
       <r>    2.8514    0.0000 </r>
      </set>
      <set comment="kpoint 8">
       <r>  -21.7751    1.0000 </r>
       <r>  -21.4028    1.0000 </r>
       <r>  -20.3081    1.0000 </r>
       <r>  -20.2867    1.0000 </r>
       <r>  -18.1693    1.0000 </r>
       <r>  -18.1473    1.0000 </r>
       <r>  -17.4924    1.0000 </r>
       <r>  -17.4705    1.0000 </r>
       <r>  -17.2296    1.0000 </r>
       <r>  -15.7431    1.0000 </r>
       <r>  -14.3317    1.0000 </r>
       <r>  -14.3140    1.0000 </r>
       <r>  -13.9600    1.0000 </r>
       <r>  -13.9429    1.0000 </r>
       <r>  -11.2699    1.0000 </r>
       <r>  -11.2469    1.0000 </r>
       <r>  -10.6102    1.0000 </r>
       <r>  -10.5920    1.0000 </r>
       <r>  -10.3379    1.0000 </r>
       <r>  -10.3153    1.0000 </r>
       <r>   -9.7879    1.0000 </r>
       <r>   -9.3486    1.0000 </r>
       <r>   -9.1490    1.0000 </r>
       <r>   -9.0912    1.0000 </r>
       <r>   -9.0795    1.0000 </r>
       <r>   -8.6421    1.0000 </r>
       <r>   -8.0702    1.0000 </r>
       <r>   -8.0514    1.0000 </r>
       <r>   -7.5347    1.0000 </r>
       <r>   -7.1716    1.0000 </r>
       <r>   -6.6682    1.0000 </r>
       <r>   -5.7561    1.0000 </r>
       <r>   -5.7377    1.0000 </r>
       <r>   -5.2012    1.0000 </r>
       <r>   -5.0556    1.0000 </r>
       <r>   -5.0377    1.0000 </r>
       <r>   -0.9656    0.0000 </r>
       <r>   -0.5980    0.0000 </r>
       <r>   -0.5725    0.0000 </r>
       <r>    0.0885    0.0000 </r>
       <r>    0.1149    0.0000 </r>
       <r>    1.1734    0.0000 </r>
       <r>    1.6816    0.0000 </r>
       <r>    1.9735    0.0000 </r>
       <r>    2.3051    0.0000 </r>
       <r>    2.4865    0.0000 </r>
      </set>
      <set comment="kpoint 9">
       <r>  -21.7751    1.0000 </r>
       <r>  -21.4027    1.0000 </r>
       <r>  -20.3056    1.0000 </r>
       <r>  -20.2897    1.0000 </r>
       <r>  -18.1667    1.0000 </r>
       <r>  -18.1499    1.0000 </r>
       <r>  -17.4897    1.0000 </r>
       <r>  -17.4727    1.0000 </r>
       <r>  -17.2308    1.0000 </r>
       <r>  -15.7385    1.0000 </r>
       <r>  -14.3315    1.0000 </r>
       <r>  -14.3168    1.0000 </r>
       <r>  -13.9596    1.0000 </r>
       <r>  -13.9459    1.0000 </r>
       <r>  -11.2658    1.0000 </r>
       <r>  -11.2484    1.0000 </r>
       <r>  -10.6152    1.0000 </r>
       <r>  -10.5979    1.0000 </r>
       <r>  -10.3341    1.0000 </r>
       <r>  -10.3163    1.0000 </r>
       <r>   -9.7881    1.0000 </r>
       <r>   -9.3488    1.0000 </r>
       <r>   -9.1528    1.0000 </r>
       <r>   -9.0874    1.0000 </r>
       <r>   -9.0720    1.0000 </r>
       <r>   -8.6355    1.0000 </r>
       <r>   -8.0673    1.0000 </r>
       <r>   -8.0531    1.0000 </r>
       <r>   -7.5264    1.0000 </r>
       <r>   -7.1799    1.0000 </r>
       <r>   -6.6764    1.0000 </r>
       <r>   -5.7535    1.0000 </r>
       <r>   -5.7395    1.0000 </r>
       <r>   -5.2059    1.0000 </r>
       <r>   -5.0528    1.0000 </r>
       <r>   -5.0394    1.0000 </r>
       <r>   -0.9582    0.0000 </r>
       <r>   -0.5953    0.0000 </r>
       <r>   -0.5763    0.0000 </r>
       <r>    0.0911    0.0000 </r>
       <r>    0.1104    0.0000 </r>
       <r>    1.1734    0.0000 </r>
       <r>    1.6816    0.0000 </r>
       <r>    1.9735    0.0000 </r>
       <r>    2.3050    0.0000 </r>
       <r>    2.4864    0.0000 </r>
      </set>
      <set comment="kpoint 10">
       <r>  -21.7754    1.0000 </r>
       <r>  -21.4028    1.0000 </r>
       <r>  -20.3004    1.0000 </r>
       <r>  -20.2939    1.0000 </r>
       <r>  -18.1630    1.0000 </r>
       <r>  -18.1545    1.0000 </r>
       <r>  -17.4862    1.0000 </r>
       <r>  -17.4773    1.0000 </r>
       <r>  -17.2250    1.0000 </r>
       <r>  -15.7557    1.0000 </r>
       <r>  -14.3250    1.0000 </r>
       <r>  -14.3154    1.0000 </r>
       <r>  -13.9529    1.0000 </r>
       <r>  -13.9434    1.0000 </r>
       <r>  -11.2660    1.0000 </r>
       <r>  -11.2565    1.0000 </r>
       <r>  -10.5925    1.0000 </r>
       <r>  -10.5779    1.0000 </r>
       <r>  -10.3375    1.0000 </r>
       <r>  -10.3241    1.0000 </r>
       <r>   -9.7876    1.0000 </r>
       <r>   -9.3477    1.0000 </r>
       <r>   -9.1354    1.0000 </r>
       <r>   -9.1135    1.0000 </r>
       <r>   -9.0938    1.0000 </r>
       <r>   -8.6590    1.0000 </r>
       <r>   -8.0662    1.0000 </r>
       <r>   -8.0591    1.0000 </r>
       <r>   -7.5541    1.0000 </r>
       <r>   -7.1537    1.0000 </r>
       <r>   -6.6454    1.0000 </r>
       <r>   -5.7520    1.0000 </r>
       <r>   -5.7448    1.0000 </r>
       <r>   -5.1888    1.0000 </r>
       <r>   -5.0505    1.0000 </r>
       <r>   -5.0444    1.0000 </r>
       <r>   -0.9873    0.0000 </r>
       <r>   -0.5863    0.0000 </r>
       <r>   -0.5798    0.0000 </r>
       <r>    0.1008    0.0000 </r>
       <r>    0.1080    0.0000 </r>
       <r>    1.1734    0.0000 </r>
       <r>    1.6817    0.0000 </r>
       <r>    1.9736    0.0000 </r>
       <r>    2.3051    0.0000 </r>
       <r>    2.4866    0.0000 </r>
      </set>
      <set comment="kpoint 11">
       <r>  -22.0954    1.0000 </r>
       <r>  -20.6201    1.0000 </r>
       <r>  -20.6021    1.0000 </r>
       <r>  -19.5320    1.0000 </r>
       <r>  -19.5075    1.0000 </r>
       <r>  -18.4642    1.0000 </r>
       <r>  -18.4455    1.0000 </r>
       <r>  -16.7798    1.0000 </r>
       <r>  -16.1550    1.0000 </r>
       <r>  -15.2542    1.0000 </r>
       <r>  -14.2464    1.0000 </r>
       <r>  -14.1684    1.0000 </r>
       <r>  -14.1408    1.0000 </r>
       <r>  -12.6139    1.0000 </r>
       <r>  -12.3245    1.0000 </r>
       <r>  -12.3069    1.0000 </r>
       <r>  -12.2626    1.0000 </r>
       <r>  -10.4996    1.0000 </r>
       <r>  -10.4660    1.0000 </r>
       <r>  -10.1685    1.0000 </r>
       <r>   -9.1813    1.0000 </r>
       <r>   -9.1565    1.0000 </r>
       <r>   -9.1373    1.0000 </r>
       <r>   -9.1144    1.0000 </r>
       <r>   -8.4335    1.0000 </r>
       <r>   -8.4194    1.0000 </r>
       <r>   -8.0945    1.0000 </r>
       <r>   -8.0636    1.0000 </r>
       <r>   -7.1996    1.0000 </r>
       <r>   -7.1772    1.0000 </r>
       <r>   -6.3871    1.0000 </r>
       <r>   -6.1526    1.0000 </r>
       <r>   -6.1144    1.0000 </r>
       <r>   -6.1007    1.0000 </r>
       <r>   -4.2642    1.0000 </r>
       <r>   -3.8889    1.0000 </r>
       <r>   -1.7246    0.0000 </r>
       <r>   -1.2555    0.0000 </r>
       <r>    0.2707    0.0000 </r>
       <r>    0.2893    0.0000 </r>
       <r>    0.7375    0.0000 </r>
       <r>    1.5325    0.0000 </r>
       <r>    1.8582    0.0000 </r>
       <r>    1.9895    0.0000 </r>
       <r>    2.0188    0.0000 </r>
       <r>    2.7776    0.0000 </r>
      </set>
      <set comment="kpoint 12">
       <r>  -22.0954    1.0000 </r>
       <r>  -20.6137    1.0000 </r>
       <r>  -20.6087    1.0000 </r>
       <r>  -19.5228    1.0000 </r>
       <r>  -19.5160    1.0000 </r>
       <r>  -18.4574    1.0000 </r>
       <r>  -18.4524    1.0000 </r>
       <r>  -16.7784    1.0000 </r>
       <r>  -16.1637    1.0000 </r>
       <r>  -15.2367    1.0000 </r>
       <r>  -14.2603    1.0000 </r>
       <r>  -14.1647    1.0000 </r>
       <r>  -14.1519    1.0000 </r>
       <r>  -12.6027    1.0000 </r>
       <r>  -12.3122    1.0000 </r>
       <r>  -12.3026    1.0000 </r>
       <r>  -12.2681    1.0000 </r>
       <r>  -10.4983    1.0000 </r>
       <r>  -10.4765    1.0000 </r>
       <r>  -10.1684    1.0000 </r>
       <r>   -9.1880    1.0000 </r>
       <r>   -9.1749    1.0000 </r>
       <r>   -9.1292    1.0000 </r>
       <r>   -9.1112    1.0000 </r>
       <r>   -8.4284    1.0000 </r>
       <r>   -8.4237    1.0000 </r>
       <r>   -8.0861    1.0000 </r>
       <r>   -8.0602    1.0000 </r>
       <r>   -7.1948    1.0000 </r>
       <r>   -7.1884    1.0000 </r>
       <r>   -6.4148    1.0000 </r>
       <r>   -6.1242    1.0000 </r>
       <r>   -6.1084    1.0000 </r>
       <r>   -6.0987    1.0000 </r>
       <r>   -4.2561    1.0000 </r>
       <r>   -3.9022    1.0000 </r>
       <r>   -1.7066    0.0000 </r>
       <r>   -1.2679    0.0000 </r>
       <r>    0.2615    0.0000 </r>
       <r>    0.2812    0.0000 </r>
       <r>    0.7375    0.0000 </r>
       <r>    1.5326    0.0000 </r>
       <r>    1.8582    0.0000 </r>
       <r>    2.0089    0.0000 </r>
       <r>    2.0192    0.0000 </r>
       <r>    2.7776    0.0000 </r>
      </set>
      <set comment="kpoint 13">
       <r>  -22.0955    1.0000 </r>
       <r>  -20.6178    1.0000 </r>
       <r>  -20.6046    1.0000 </r>
       <r>  -19.5282    1.0000 </r>
       <r>  -19.5103    1.0000 </r>
       <r>  -18.4619    1.0000 </r>
       <r>  -18.4481    1.0000 </r>
       <r>  -16.7783    1.0000 </r>
       <r>  -16.1665    1.0000 </r>
       <r>  -15.2305    1.0000 </r>
       <r>  -14.2631    1.0000 </r>
       <r>  -14.1708    1.0000 </r>
       <r>  -14.1505    1.0000 </r>
       <r>  -12.5988    1.0000 </r>
       <r>  -12.3104    1.0000 </r>
       <r>  -12.2953    1.0000 </r>
       <r>  -12.2729    1.0000 </r>
       <r>  -10.5034    1.0000 </r>
       <r>  -10.4749    1.0000 </r>
       <r>  -10.1683    1.0000 </r>
       <r>   -9.1989    1.0000 </r>
       <r>   -9.1731    1.0000 </r>
       <r>   -9.1275    1.0000 </r>
       <r>   -9.1088    1.0000 </r>
       <r>   -8.4311    1.0000 </r>
       <r>   -8.4206    1.0000 </r>
       <r>   -8.0852    1.0000 </r>
       <r>   -8.0566    1.0000 </r>
       <r>   -7.2009    1.0000 </r>
       <r>   -7.1846    1.0000 </r>
       <r>   -6.4239    1.0000 </r>
       <r>   -6.1148    1.0000 </r>
       <r>   -6.1081    1.0000 </r>
       <r>   -6.0962    1.0000 </r>
       <r>   -4.2533    1.0000 </r>
       <r>   -3.9069    1.0000 </r>
       <r>   -1.7001    0.0000 </r>
       <r>   -1.2722    0.0000 </r>
       <r>    0.2587    0.0000 </r>
       <r>    0.2777    0.0000 </r>
       <r>    0.7375    0.0000 </r>
       <r>    1.5326    0.0000 </r>
       <r>    1.8582    0.0000 </r>
       <r>    2.0067    0.0000 </r>
       <r>    2.0286    0.0000 </r>
       <r>    2.7777    0.0000 </r>
      </set>
      <set comment="kpoint 14">
       <r>  -21.8817    1.0000 </r>
       <r>  -21.1382    1.0000 </r>
       <r>  -20.7687    1.0000 </r>
       <r>  -19.6748    1.0000 </r>
       <r>  -18.9584    1.0000 </r>
       <r>  -17.9172    1.0000 </r>
       <r>  -17.5949    1.0000 </r>
       <r>  -17.5721    1.0000 </r>
       <r>  -16.6674    1.0000 </r>
       <r>  -15.2658    1.0000 </r>
       <r>  -15.2468    1.0000 </r>
       <r>  -14.6288    1.0000 </r>
       <r>  -13.7178    1.0000 </r>
       <r>  -12.8299    1.0000 </r>
       <r>  -11.9096    1.0000 </r>
       <r>  -11.6901    1.0000 </r>
       <r>  -11.3802    1.0000 </r>
       <r>  -10.0301    1.0000 </r>
       <r>   -9.9145    1.0000 </r>
       <r>   -9.9134    1.0000 </r>
       <r>   -9.7185    1.0000 </r>
       <r>   -9.6200    1.0000 </r>
       <r>   -9.2898    1.0000 </r>
       <r>   -9.2589    1.0000 </r>
       <r>   -9.0377    1.0000 </r>
       <r>   -8.6070    1.0000 </r>
       <r>   -8.2636    1.0000 </r>
       <r>   -7.5787    1.0000 </r>
       <r>   -7.3530    1.0000 </r>
       <r>   -7.1275    1.0000 </r>
       <r>   -6.5642    1.0000 </r>
       <r>   -6.5615    1.0000 </r>
       <r>   -5.5874    1.0000 </r>
       <r>   -5.3881    1.0000 </r>
       <r>   -5.0792    1.0000 </r>
       <r>   -4.4228    1.0000 </r>
       <r>   -1.3117    0.0000 </r>
       <r>   -0.6806    0.0000 </r>
       <r>   -0.4156    0.0000 </r>
       <r>   -0.2863    0.0000 </r>
       <r>    1.0282    0.0000 </r>
       <r>    1.2152    0.0000 </r>
       <r>    1.8266    0.0000 </r>
       <r>    2.0446    0.0000 </r>
       <r>    2.1561    0.0000 </r>
       <r>    2.3984    0.0000 </r>
      </set>
      <set comment="kpoint 15">
       <r>  -21.8818    1.0000 </r>
       <r>  -21.1378    1.0000 </r>
       <r>  -20.7691    1.0000 </r>
       <r>  -19.6747    1.0000 </r>
       <r>  -18.9580    1.0000 </r>
       <r>  -17.9165    1.0000 </r>
       <r>  -17.5978    1.0000 </r>
       <r>  -17.5693    1.0000 </r>
       <r>  -16.6723    1.0000 </r>
       <r>  -15.2498    1.0000 </r>
       <r>  -15.2447    1.0000 </r>
       <r>  -14.6424    1.0000 </r>
       <r>  -13.7329    1.0000 </r>
       <r>  -12.8163    1.0000 </r>
       <r>  -11.8932    1.0000 </r>
       <r>  -11.6855    1.0000 </r>
       <r>  -11.3912    1.0000 </r>
       <r>  -10.0466    1.0000 </r>
       <r>   -9.9286    1.0000 </r>
       <r>   -9.9144    1.0000 </r>
       <r>   -9.7021    1.0000 </r>
       <r>   -9.6269    1.0000 </r>
       <r>   -9.2909    1.0000 </r>
       <r>   -9.2509    1.0000 </r>
       <r>   -9.0383    1.0000 </r>
       <r>   -8.6058    1.0000 </r>
       <r>   -8.2441    1.0000 </r>
       <r>   -7.5923    1.0000 </r>
       <r>   -7.3534    1.0000 </r>
       <r>   -7.1390    1.0000 </r>
       <r>   -6.5700    1.0000 </r>
       <r>   -6.5494    1.0000 </r>
       <r>   -5.5753    1.0000 </r>
       <r>   -5.3917    1.0000 </r>
       <r>   -5.0711    1.0000 </r>
       <r>   -4.4366    1.0000 </r>
       <r>   -1.2907    0.0000 </r>
       <r>   -0.6750    0.0000 </r>
       <r>   -0.4313    0.0000 </r>
       <r>   -0.3086    0.0000 </r>
       <r>    1.0282    0.0000 </r>
       <r>    1.2311    0.0000 </r>
       <r>    1.8266    0.0000 </r>
       <r>    2.0446    0.0000 </r>
       <r>    2.1561    0.0000 </r>
       <r>    2.3996    0.0000 </r>
      </set>
      <set comment="kpoint 16">
       <r>  -21.8819    1.0000 </r>
       <r>  -21.1382    1.0000 </r>
       <r>  -20.7686    1.0000 </r>
       <r>  -19.6743    1.0000 </r>
       <r>  -18.9581    1.0000 </r>
       <r>  -17.9173    1.0000 </r>
       <r>  -17.5955    1.0000 </r>
       <r>  -17.5697    1.0000 </r>
       <r>  -16.6735    1.0000 </r>
       <r>  -15.2654    1.0000 </r>
       <r>  -15.2395    1.0000 </r>
       <r>  -14.6332    1.0000 </r>
       <r>  -13.7312    1.0000 </r>
       <r>  -12.8173    1.0000 </r>
       <r>  -11.8945    1.0000 </r>
       <r>  -11.6724    1.0000 </r>
       <r>  -11.3946    1.0000 </r>
       <r>  -10.0452    1.0000 </r>
       <r>   -9.9141    1.0000 </r>
       <r>   -9.9084    1.0000 </r>
       <r>   -9.7134    1.0000 </r>
       <r>   -9.6413    1.0000 </r>
       <r>   -9.2781    1.0000 </r>
       <r>   -9.2695    1.0000 </r>
       <r>   -9.0369    1.0000 </r>
       <r>   -8.6077    1.0000 </r>
       <r>   -8.2686    1.0000 </r>
       <r>   -7.5654    1.0000 </r>
       <r>   -7.3566    1.0000 </r>
       <r>   -7.1603    1.0000 </r>
       <r>   -6.5686    1.0000 </r>
       <r>   -6.5270    1.0000 </r>
       <r>   -5.5827    1.0000 </r>
       <r>   -5.3770    1.0000 </r>
       <r>   -5.0713    1.0000 </r>
       <r>   -4.4388    1.0000 </r>
       <r>   -1.2874    0.0000 </r>
       <r>   -0.7010    0.0000 </r>
       <r>   -0.4294    0.0000 </r>
       <r>   -0.2961    0.0000 </r>
       <r>    1.0282    0.0000 </r>
       <r>    1.2270    0.0000 </r>
       <r>    1.8267    0.0000 </r>
       <r>    2.0446    0.0000 </r>
       <r>    2.1561    0.0000 </r>
       <r>    2.4112    0.0000 </r>
      </set>
      <set comment="kpoint 17">
       <r>  -21.8819    1.0000 </r>
       <r>  -21.1381    1.0000 </r>
       <r>  -20.7686    1.0000 </r>
       <r>  -19.6743    1.0000 </r>
       <r>  -18.9584    1.0000 </r>
       <r>  -17.9174    1.0000 </r>
       <r>  -17.5964    1.0000 </r>
       <r>  -17.5687    1.0000 </r>
       <r>  -16.6720    1.0000 </r>
       <r>  -15.2639    1.0000 </r>
       <r>  -15.2460    1.0000 </r>
       <r>  -14.6298    1.0000 </r>
       <r>  -13.7264    1.0000 </r>
       <r>  -12.8217    1.0000 </r>
       <r>  -11.8998    1.0000 </r>
       <r>  -11.6756    1.0000 </r>
       <r>  -11.3900    1.0000 </r>
       <r>  -10.0396    1.0000 </r>
       <r>   -9.9142    1.0000 </r>
       <r>   -9.9040    1.0000 </r>
       <r>   -9.7185    1.0000 </r>
       <r>   -9.6382    1.0000 </r>
       <r>   -9.2779    1.0000 </r>
       <r>   -9.2715    1.0000 </r>
       <r>   -9.0367    1.0000 </r>
       <r>   -8.6079    1.0000 </r>
       <r>   -8.2729    1.0000 </r>
       <r>   -7.5637    1.0000 </r>
       <r>   -7.3561    1.0000 </r>
       <r>   -7.1547    1.0000 </r>
       <r>   -6.5670    1.0000 </r>
       <r>   -6.5328    1.0000 </r>
       <r>   -5.5860    1.0000 </r>
       <r>   -5.3774    1.0000 </r>
       <r>   -5.0736    1.0000 </r>
       <r>   -4.4341    1.0000 </r>
       <r>   -1.2946    0.0000 </r>
       <r>   -0.7006    0.0000 </r>
       <r>   -0.4253    0.0000 </r>
       <r>   -0.2890    0.0000 </r>
       <r>    1.0282    0.0000 </r>
       <r>    1.2222    0.0000 </r>
       <r>    1.8267    0.0000 </r>
       <r>    2.0447    0.0000 </r>
       <r>    2.1561    0.0000 </r>
       <r>    2.4097    0.0000 </r>
      </set>
      <set comment="kpoint 18">
       <r>  -21.8817    1.0000 </r>
       <r>  -21.1381    1.0000 </r>
       <r>  -20.7688    1.0000 </r>
       <r>  -19.6750    1.0000 </r>
       <r>  -18.9581    1.0000 </r>
       <r>  -17.9171    1.0000 </r>
       <r>  -17.5959    1.0000 </r>
       <r>  -17.5715    1.0000 </r>
       <r>  -16.6673    1.0000 </r>
       <r>  -15.2660    1.0000 </r>
       <r>  -15.2427    1.0000 </r>
       <r>  -14.6322    1.0000 </r>
       <r>  -13.7197    1.0000 </r>
       <r>  -12.8287    1.0000 </r>
       <r>  -11.9073    1.0000 </r>
       <r>  -11.6927    1.0000 </r>
       <r>  -11.3807    1.0000 </r>
       <r>  -10.0313    1.0000 </r>
       <r>   -9.9206    1.0000 </r>
       <r>   -9.9145    1.0000 </r>
       <r>   -9.7142    1.0000 </r>
       <r>   -9.6170    1.0000 </r>
       <r>   -9.2919    1.0000 </r>
       <r>   -9.2548    1.0000 </r>
       <r>   -9.0380    1.0000 </r>
       <r>   -8.6064    1.0000 </r>
       <r>   -8.2556    1.0000 </r>
       <r>   -7.5865    1.0000 </r>
       <r>   -7.3523    1.0000 </r>
       <r>   -7.1232    1.0000 </r>
       <r>   -6.5662    1.0000 </r>
       <r>   -6.5650    1.0000 </r>
       <r>   -5.5846    1.0000 </r>
       <r>   -5.3920    1.0000 </r>
       <r>   -5.0785    1.0000 </r>
       <r>   -4.4234    1.0000 </r>
       <r>   -1.3108    0.0000 </r>
       <r>   -0.6741    0.0000 </r>
       <r>   -0.4160    0.0000 </r>
       <r>   -0.2924    0.0000 </r>
       <r>    1.0282    0.0000 </r>
       <r>    1.2176    0.0000 </r>
       <r>    1.8266    0.0000 </r>
       <r>    2.0447    0.0000 </r>
       <r>    2.1561    0.0000 </r>
       <r>    2.5527    0.0000 </r>
      </set>
      <set comment="kpoint 19">
       <r>  -21.8818    1.0000 </r>
       <r>  -21.1380    1.0000 </r>
       <r>  -20.7690    1.0000 </r>
       <r>  -19.6745    1.0000 </r>
       <r>  -18.9579    1.0000 </r>
       <r>  -17.9165    1.0000 </r>
       <r>  -17.5960    1.0000 </r>
       <r>  -17.5708    1.0000 </r>
       <r>  -16.6739    1.0000 </r>
       <r>  -15.2538    1.0000 </r>
       <r>  -15.2398    1.0000 </r>
       <r>  -14.6424    1.0000 </r>
       <r>  -13.7358    1.0000 </r>
       <r>  -12.8132    1.0000 </r>
       <r>  -11.8901    1.0000 </r>
       <r>  -11.6798    1.0000 </r>
       <r>  -11.3952    1.0000 </r>
       <r>  -10.0509    1.0000 </r>
       <r>   -9.9258    1.0000 </r>
       <r>   -9.9142    1.0000 </r>
       <r>   -9.7015    1.0000 </r>
       <r>   -9.6331    1.0000 </r>
       <r>   -9.2883    1.0000 </r>
       <r>   -9.2536    1.0000 </r>
       <r>   -9.0381    1.0000 </r>
       <r>   -8.6061    1.0000 </r>
       <r>   -8.2478    1.0000 </r>
       <r>   -7.5862    1.0000 </r>
       <r>   -7.3546    1.0000 </r>
       <r>   -7.1490    1.0000 </r>
       <r>   -6.5708    1.0000 </r>
       <r>   -6.5389    1.0000 </r>
       <r>   -5.5748    1.0000 </r>
       <r>   -5.3876    1.0000 </r>
       <r>   -5.0694    1.0000 </r>
       <r>   -4.4407    1.0000 </r>
       <r>   -1.2845    0.0000 </r>
       <r>   -0.6819    0.0000 </r>
       <r>   -0.4349    0.0000 </r>
       <r>   -0.3098    0.0000 </r>
       <r>    1.0282    0.0000 </r>
       <r>    1.2336    0.0000 </r>
       <r>    1.8267    0.0000 </r>
       <r>    2.0446    0.0000 </r>
       <r>    2.1561    0.0000 </r>
       <r>    2.4038    0.0000 </r>
      </set>
      <set comment="kpoint 20">
       <r>  -21.5646    1.0000 </r>
       <r>  -21.5597    1.0000 </r>
       <r>  -20.8216    1.0000 </r>
       <r>  -19.7264    1.0000 </r>
       <r>  -18.3098    1.0000 </r>
       <r>  -18.3026    1.0000 </r>
       <r>  -17.3115    1.0000 </r>
       <r>  -17.3035    1.0000 </r>
       <r>  -16.9885    1.0000 </r>
       <r>  -15.9358    1.0000 </r>
       <r>  -15.0185    1.0000 </r>
       <r>  -15.0026    1.0000 </r>
       <r>  -13.2911    1.0000 </r>
       <r>  -13.2730    1.0000 </r>
       <r>  -11.3622    1.0000 </r>
       <r>  -10.9982    1.0000 </r>
       <r>  -10.9776    1.0000 </r>
       <r>  -10.5073    1.0000 </r>
       <r>  -10.4906    1.0000 </r>
       <r>   -9.9021    1.0000 </r>
       <r>   -9.6385    1.0000 </r>
       <r>   -9.5381    1.0000 </r>
       <r>   -9.5341    1.0000 </r>
       <r>   -9.3384    1.0000 </r>
       <r>   -8.6670    1.0000 </r>
       <r>   -8.4143    1.0000 </r>
       <r>   -8.1284    1.0000 </r>
       <r>   -8.1135    1.0000 </r>
       <r>   -7.4086    1.0000 </r>
       <r>   -7.0647    1.0000 </r>
       <r>   -7.0486    1.0000 </r>
       <r>   -5.8611    1.0000 </r>
       <r>   -5.8509    1.0000 </r>
       <r>   -5.0672    1.0000 </r>
       <r>   -5.0185    1.0000 </r>
       <r>   -5.0031    1.0000 </r>
       <r>   -1.0847    0.0000 </r>
       <r>   -0.8379    0.0000 </r>
       <r>   -0.8109    0.0000 </r>
       <r>    0.4014    0.0000 </r>
       <r>    0.4210    0.0000 </r>
       <r>    1.4638    0.0000 </r>
       <r>    1.4643    0.0000 </r>
       <r>    2.2669    0.0000 </r>
       <r>    2.2671    0.0000 </r>
       <r>    2.6029    0.0000 </r>
      </set>
      <set comment="kpoint 21">
       <r>  -21.5686    1.0000 </r>
       <r>  -21.5556    1.0000 </r>
       <r>  -20.8217    1.0000 </r>
       <r>  -19.7266    1.0000 </r>
       <r>  -18.3155    1.0000 </r>
       <r>  -18.2967    1.0000 </r>
       <r>  -17.3171    1.0000 </r>
       <r>  -17.2972    1.0000 </r>
       <r>  -16.9909    1.0000 </r>
       <r>  -15.9301    1.0000 </r>
       <r>  -15.0211    1.0000 </r>
       <r>  -15.0036    1.0000 </r>
       <r>  -13.2920    1.0000 </r>
       <r>  -13.2730    1.0000 </r>
       <r>  -11.3677    1.0000 </r>
       <r>  -10.9967    1.0000 </r>
       <r>  -10.9783    1.0000 </r>
       <r>  -10.5051    1.0000 </r>
       <r>  -10.4891    1.0000 </r>
       <r>   -9.8954    1.0000 </r>
       <r>   -9.6458    1.0000 </r>
       <r>   -9.5416    1.0000 </r>
       <r>   -9.5310    1.0000 </r>
       <r>   -9.3430    1.0000 </r>
       <r>   -8.6666    1.0000 </r>
       <r>   -8.4072    1.0000 </r>
       <r>   -8.1275    1.0000 </r>
       <r>   -8.1000    1.0000 </r>
       <r>   -7.4077    1.0000 </r>
       <r>   -7.0804    1.0000 </r>
       <r>   -7.0484    1.0000 </r>
       <r>   -5.8646    1.0000 </r>
       <r>   -5.8477    1.0000 </r>
       <r>   -5.0719    1.0000 </r>
       <r>   -5.0180    1.0000 </r>
       <r>   -5.0011    1.0000 </r>
       <r>   -1.0769    0.0000 </r>
       <r>   -0.8381    0.0000 </r>
       <r>   -0.8152    0.0000 </r>
       <r>    0.4018    0.0000 </r>
       <r>    0.4215    0.0000 </r>
       <r>    1.4633    0.0000 </r>
       <r>    1.4648    0.0000 </r>
       <r>    2.2667    0.0000 </r>
       <r>    2.2672    0.0000 </r>
       <r>    2.4860    0.0000 </r>
      </set>
      <set comment="kpoint 22">
       <r>  -21.5711    1.0000 </r>
       <r>  -21.5535    1.0000 </r>
       <r>  -20.8213    1.0000 </r>
       <r>  -19.7261    1.0000 </r>
       <r>  -18.3193    1.0000 </r>
       <r>  -18.2934    1.0000 </r>
       <r>  -17.3219    1.0000 </r>
       <r>  -17.2951    1.0000 </r>
       <r>  -16.9810    1.0000 </r>
       <r>  -15.9515    1.0000 </r>
       <r>  -15.0154    1.0000 </r>
       <r>  -14.9965    1.0000 </r>
       <r>  -13.2914    1.0000 </r>
       <r>  -13.2716    1.0000 </r>
       <r>  -11.3457    1.0000 </r>
       <r>  -10.9969    1.0000 </r>
       <r>  -10.9803    1.0000 </r>
       <r>  -10.5119    1.0000 </r>
       <r>  -10.4958    1.0000 </r>
       <r>   -9.9193    1.0000 </r>
       <r>   -9.6203    1.0000 </r>
       <r>   -9.5428    1.0000 </r>
       <r>   -9.5284    1.0000 </r>
       <r>   -9.3257    1.0000 </r>
       <r>   -8.6683    1.0000 </r>
       <r>   -8.4362    1.0000 </r>
       <r>   -8.1542    1.0000 </r>
       <r>   -8.1223    1.0000 </r>
       <r>   -7.4112    1.0000 </r>
       <r>   -7.0594    1.0000 </r>
       <r>   -7.0149    1.0000 </r>
       <r>   -5.8664    1.0000 </r>
       <r>   -5.8447    1.0000 </r>
       <r>   -5.0536    1.0000 </r>
       <r>   -5.0250    1.0000 </r>
       <r>   -5.0042    1.0000 </r>
       <r>   -1.1069    0.0000 </r>
       <r>   -0.8264    0.0000 </r>
       <r>   -0.8095    0.0000 </r>
       <r>    0.3999    0.0000 </r>
       <r>    0.4197    0.0000 </r>
       <r>    1.4631    0.0000 </r>
       <r>    1.4651    0.0000 </r>
       <r>    2.2667    0.0000 </r>
       <r>    2.2674    0.0000 </r>
       <r>    2.4811    0.0000 </r>
      </set>
      <set comment="kpoint 23">
       <r>  -21.6154    1.0000 </r>
       <r>  -21.2527    1.0000 </r>
       <r>  -21.2350    1.0000 </r>
       <r>  -19.0729    1.0000 </r>
       <r>  -19.0479    1.0000 </r>
       <r>  -18.3555    1.0000 </r>
       <r>  -17.1002    1.0000 </r>
       <r>  -17.0814    1.0000 </r>
       <r>  -16.7053    1.0000 </r>
       <r>  -15.6901    1.0000 </r>
       <r>  -15.6185    1.0000 </r>
       <r>  -15.5987    1.0000 </r>
       <r>  -12.9076    1.0000 </r>
       <r>  -12.2811    1.0000 </r>
       <r>  -12.2616    1.0000 </r>
       <r>  -11.3658    1.0000 </r>
       <r>  -10.5568    1.0000 </r>
       <r>  -10.5479    1.0000 </r>
       <r>  -10.5250    1.0000 </r>
       <r>   -9.8333    1.0000 </r>
       <r>   -9.8154    1.0000 </r>
       <r>   -9.5992    1.0000 </r>
       <r>   -9.1680    1.0000 </r>
       <r>   -9.1538    1.0000 </r>
       <r>   -8.8429    1.0000 </r>
       <r>   -8.8072    1.0000 </r>
       <r>   -7.8653    1.0000 </r>
       <r>   -7.7018    1.0000 </r>
       <r>   -7.6625    1.0000 </r>
       <r>   -7.1005    1.0000 </r>
       <r>   -6.6741    1.0000 </r>
       <r>   -6.6519    1.0000 </r>
       <r>   -5.8972    1.0000 </r>
       <r>   -5.0182    1.0000 </r>
       <r>   -5.0029    1.0000 </r>
       <r>   -4.6622    1.0000 </r>
       <r>   -1.2443    0.0000 </r>
       <r>   -1.0246    0.0000 </r>
       <r>   -1.0067    0.0000 </r>
       <r>    0.5373    0.0000 </r>
       <r>    1.3916    0.0000 </r>
       <r>    1.4643    0.0000 </r>
       <r>    1.4898    0.0000 </r>
       <r>    1.8991    0.0000 </r>
       <r>    1.9011    0.0000 </r>
       <r>    2.1938    0.0000 </r>
      </set>
      <set comment="kpoint 24">
       <r>  -21.6157    1.0000 </r>
       <r>  -21.2461    1.0000 </r>
       <r>  -21.2413    1.0000 </r>
       <r>  -19.0639    1.0000 </r>
       <r>  -19.0567    1.0000 </r>
       <r>  -18.3555    1.0000 </r>
       <r>  -17.0928    1.0000 </r>
       <r>  -17.0846    1.0000 </r>
       <r>  -16.7128    1.0000 </r>
       <r>  -15.6738    1.0000 </r>
       <r>  -15.6245    1.0000 </r>
       <r>  -15.6060    1.0000 </r>
       <r>  -12.9212    1.0000 </r>
       <r>  -12.2689    1.0000 </r>
       <r>  -12.2537    1.0000 </r>
       <r>  -11.3512    1.0000 </r>
       <r>  -10.5634    1.0000 </r>
       <r>  -10.5571    1.0000 </r>
       <r>  -10.5425    1.0000 </r>
       <r>   -9.8267    1.0000 </r>
       <r>   -9.8100    1.0000 </r>
       <r>   -9.5988    1.0000 </r>
       <r>   -9.1631    1.0000 </r>
       <r>   -9.1590    1.0000 </r>
       <r>   -8.8371    1.0000 </r>
       <r>   -8.8051    1.0000 </r>
       <r>   -7.8887    1.0000 </r>
       <r>   -7.7034    1.0000 </r>
       <r>   -7.6690    1.0000 </r>
       <r>   -7.0758    1.0000 </r>
       <r>   -6.6692    1.0000 </r>
       <r>   -6.6617    1.0000 </r>
       <r>   -5.8925    1.0000 </r>
       <r>   -5.0125    1.0000 </r>
       <r>   -4.9950    1.0000 </r>
       <r>   -4.6756    1.0000 </r>
       <r>   -1.2237    0.0000 </r>
       <r>   -1.0407    0.0000 </r>
       <r>   -1.0128    0.0000 </r>
       <r>    0.5260    0.0000 </r>
       <r>    1.3916    0.0000 </r>
       <r>    1.4769    0.0000 </r>
       <r>    1.4914    0.0000 </r>
       <r>    1.8998    0.0000 </r>
       <r>    1.9003    0.0000 </r>
       <r>    2.1938    0.0000 </r>
      </set>
      <set comment="kpoint 25">
       <r>  -21.6156    1.0000 </r>
       <r>  -21.2502    1.0000 </r>
       <r>  -21.2372    1.0000 </r>
       <r>  -19.0693    1.0000 </r>
       <r>  -19.0510    1.0000 </r>
       <r>  -18.3559    1.0000 </r>
       <r>  -17.0953    1.0000 </r>
       <r>  -17.0806    1.0000 </r>
       <r>  -16.7156    1.0000 </r>
       <r>  -15.6681    1.0000 </r>
       <r>  -15.6272    1.0000 </r>
       <r>  -15.6077    1.0000 </r>
       <r>  -12.9259    1.0000 </r>
       <r>  -12.2662    1.0000 </r>
       <r>  -12.2490    1.0000 </r>
       <r>  -11.3457    1.0000 </r>
       <r>  -10.5720    1.0000 </r>
       <r>  -10.5601    1.0000 </r>
       <r>  -10.5439    1.0000 </r>
       <r>   -9.8244    1.0000 </r>
       <r>   -9.8075    1.0000 </r>
       <r>   -9.5985    1.0000 </r>
       <r>   -9.1664    1.0000 </r>
       <r>   -9.1559    1.0000 </r>
       <r>   -8.8369    1.0000 </r>
       <r>   -8.8026    1.0000 </r>
       <r>   -7.8966    1.0000 </r>
       <r>   -7.7053    1.0000 </r>
       <r>   -7.6701    1.0000 </r>
       <r>   -7.0672    1.0000 </r>
       <r>   -6.6745    1.0000 </r>
       <r>   -6.6580    1.0000 </r>
       <r>   -5.8909    1.0000 </r>
       <r>   -5.0096    1.0000 </r>
       <r>   -4.9930    1.0000 </r>
       <r>   -4.6805    1.0000 </r>
       <r>   -1.2159    0.0000 </r>
       <r>   -1.0426    0.0000 </r>
       <r>   -1.0191    0.0000 </r>
       <r>    0.5219    0.0000 </r>
       <r>    1.3917    0.0000 </r>
       <r>    1.4763    0.0000 </r>
       <r>    1.4970    0.0000 </r>
       <r>    1.8993    0.0000 </r>
       <r>    1.9008    0.0000 </r>
       <r>    2.1938    0.0000 </r>
      </set>
     </set>
    </set>
   </array>
  </eigenvalues>
  <separator name="orbital magnetization" >
   <v name="MAGDIPOLOUT">      0.00000000      0.00000000      0.00000000</v>
  </separator>
  <dos>
   <i name="efermi">     -2.75513842 </i>
   <total>
    <array>
     <dimension dim="1">gridpoints</dimension>
     <dimension dim="2">spin</dimension>
     <field>energy</field>
     <field>total</field>
     <field>integrated</field>
     <set>
      <set comment="spin 1">
       <r>   -23.5114     0.0000     0.0000 </r>
       <r>   -23.4194     0.0000     0.0000 </r>
       <r>   -23.3273     0.0000     0.0000 </r>
       <r>   -23.2352     0.0000     0.0000 </r>
       <r>   -23.1432     0.0000     0.0000 </r>
       <r>   -23.0511     0.0000     0.0000 </r>
       <r>   -22.9590     0.0000     0.0000 </r>
       <r>   -22.8670     0.0000     0.0000 </r>
       <r>   -22.7749     0.0000     0.0000 </r>
       <r>   -22.6829     0.0000     0.0000 </r>
       <r>   -22.5908     0.0000     0.0000 </r>
       <r>   -22.4987     0.0000     0.0000 </r>
       <r>   -22.4067     0.0000     0.0000 </r>
       <r>   -22.3146     0.0236     0.0022 </r>
       <r>   -22.2226     1.1018     0.1036 </r>
       <r>   -22.1305     2.3660     0.3214 </r>
       <r>   -22.0384     3.5657     0.6497 </r>
       <r>   -21.9464     1.5377     0.7912 </r>
       <r>   -21.8543     4.0197     1.1613 </r>
       <r>   -21.7623     2.8376     1.4225 </r>
       <r>   -21.6702     1.1179     1.5255 </r>
       <r>   -21.5781     3.8579     1.8806 </r>
       <r>   -21.4861     3.8903     2.2388 </r>
       <r>   -21.3940     1.6569     2.3913 </r>
       <r>   -21.3020     1.3446     2.5151 </r>
       <r>   -21.2099     4.2368     2.9051 </r>
       <r>   -21.1178     4.6193     3.3304 </r>
       <r>   -21.0258     1.5129     3.4696 </r>
       <r>   -20.9337     1.1232     3.5730 </r>
       <r>   -20.8417     2.3744     3.7916 </r>
       <r>   -20.7496     5.5239     4.3002 </r>
       <r>   -20.6575     2.1368     4.4969 </r>
       <r>   -20.5655     4.2572     4.8888 </r>
       <r>   -20.4734     0.5429     4.9388 </r>
       <r>   -20.3813     0.5409     4.9886 </r>
       <r>   -20.2893     5.1508     5.4628 </r>
       <r>   -20.1972     4.6756     5.8932 </r>
       <r>   -20.1052     2.8943     6.1597 </r>
       <r>   -20.0131     1.1788     6.2682 </r>
       <r>   -19.9210     3.9664     6.6333 </r>
       <r>   -19.8290     0.2193     6.6535 </r>
       <r>   -19.7369     1.3642     6.7791 </r>
       <r>   -19.6449     7.5562     7.4747 </r>
       <r>   -19.5528     2.6722     7.7207 </r>
       <r>   -19.4607     4.0779     8.0962 </r>
       <r>   -19.3687     0.2945     8.1233 </r>
       <r>   -19.2766     1.8441     8.2930 </r>
       <r>   -19.1846     3.3850     8.6047 </r>
       <r>   -19.0925     1.0885     8.7049 </r>
       <r>   -19.0004     4.6706     9.1348 </r>
       <r>   -18.9084     5.7957     9.6684 </r>
       <r>   -18.8163     2.0617     9.8582 </r>
       <r>   -18.7243     4.0481    10.2309 </r>
       <r>   -18.6322     1.0373    10.3264 </r>
       <r>   -18.5401     0.0495    10.3309 </r>
       <r>   -18.4481     3.0260    10.6095 </r>
       <r>   -18.3560     4.0116    10.9788 </r>
       <r>   -18.2640     5.5513    11.4899 </r>
       <r>   -18.1719     2.5600    11.7256 </r>
       <r>   -18.0798     4.1856    12.1109 </r>
       <r>   -17.9878     1.9751    12.2927 </r>
       <r>   -17.8957     3.7889    12.6415 </r>
       <r>   -17.8036     1.4518    12.7752 </r>
       <r>   -17.7116     0.0067    12.7758 </r>
       <r>   -17.6195     1.7836    12.9400 </r>
       <r>   -17.5275     8.6614    13.7374 </r>
       <r>   -17.4354     4.9677    14.1947 </r>
       <r>   -17.3433     1.4292    14.3263 </r>
       <r>   -17.2513     4.7961    14.7678 </r>
       <r>   -17.1592     2.3721    14.9862 </r>
       <r>   -17.0672     3.8356    15.3393 </r>
       <r>   -16.9751     3.0813    15.6230 </r>
       <r>   -16.8830     0.9918    15.7143 </r>
       <r>   -16.7910     1.5611    15.8580 </r>
       <r>   -16.6989     8.6876    16.6578 </r>
       <r>   -16.6069     5.5209    17.1660 </r>
       <r>   -16.5148     0.1915    17.1837 </r>
       <r>   -16.4227     0.0000    17.1837 </r>
       <r>   -16.3307     0.0000    17.1837 </r>
       <r>   -16.2386     0.0415    17.1875 </r>
       <r>   -16.1466     1.7267    17.3465 </r>
       <r>   -16.0545     1.1689    17.4541 </r>
       <r>   -15.9624     4.7688    17.8931 </r>
       <r>   -15.8704     2.8554    18.1560 </r>
       <r>   -15.7783     0.5754    18.2089 </r>
       <r>   -15.6863     3.2358    18.5068 </r>
       <r>   -15.5942     5.2952    18.9943 </r>
       <r>   -15.5021     1.6073    19.1423 </r>
       <r>   -15.4101     0.0714    19.1488 </r>
       <r>   -15.3180     1.6513    19.3009 </r>
       <r>   -15.2259     9.8830    20.2107 </r>
       <r>   -15.1339     3.4654    20.5297 </r>
       <r>   -15.0418     1.0169    20.6233 </r>
       <r>   -14.9498     4.8821    21.0728 </r>
       <r>   -14.8577     4.4209    21.4798 </r>
       <r>   -14.7656     1.3290    21.6021 </r>
       <r>   -14.6736     2.8222    21.8619 </r>
       <r>   -14.5815     8.4791    22.6425 </r>
       <r>   -14.4895     1.0003    22.7346 </r>
       <r>   -14.3974     0.1016    22.7440 </r>
       <r>   -14.3053     3.7607    23.0902 </r>
       <r>   -14.2133     4.1609    23.4733 </r>
       <r>   -14.1212     4.4209    23.8802 </r>
       <r>   -14.0292     0.9355    23.9664 </r>
       <r>   -13.9371     3.3673    24.2764 </r>
       <r>   -13.8450     1.8689    24.4484 </r>
       <r>   -13.7530     1.2709    24.5654 </r>
       <r>   -13.6609     3.9861    24.9324 </r>
       <r>   -13.5689     2.3208    25.1460 </r>
       <r>   -13.4768     4.3122    25.5430 </r>
       <r>   -13.3847     1.4295    25.6746 </r>
       <r>   -13.2927     2.4539    25.9005 </r>
       <r>   -13.2006     3.6660    26.2380 </r>
       <r>   -13.1086     0.0753    26.2450 </r>
       <r>   -13.0165     0.8557    26.3237 </r>
       <r>   -12.9244     9.3244    27.1821 </r>
       <r>   -12.8324     5.1039    27.6520 </r>
       <r>   -12.7403     3.2726    27.9533 </r>
       <r>   -12.6482     0.3701    27.9874 </r>
       <r>   -12.5562     2.1238    28.1829 </r>
       <r>   -12.4641     0.2674    28.2075 </r>
       <r>   -12.3721     1.5849    28.3534 </r>
       <r>   -12.2800     7.9162    29.0822 </r>
       <r>   -12.1879     8.7059    29.8836 </r>
       <r>   -12.0959     2.9970    30.1595 </r>
       <r>   -12.0038     0.0503    30.1642 </r>
       <r>   -11.9118     1.9180    30.3407 </r>
       <r>   -11.8197     3.3739    30.6514 </r>
       <r>   -11.7276     3.6800    30.9901 </r>
       <r>   -11.6356     6.4514    31.5841 </r>
       <r>   -11.5435     0.5277    31.6326 </r>
       <r>   -11.4515     0.2367    31.6544 </r>
       <r>   -11.3594     6.4793    32.2509 </r>
       <r>   -11.2673     6.0599    32.8088 </r>
       <r>   -11.1753     3.3666    33.1187 </r>
       <r>   -11.0832     5.5368    33.6284 </r>
       <r>   -10.9912     4.7301    34.0639 </r>
       <r>   -10.8991     2.8131    34.3229 </r>
       <r>   -10.8070     0.0397    34.3265 </r>
       <r>   -10.7150     0.0044    34.3269 </r>
       <r>   -10.6229     1.5638    34.4709 </r>
       <r>   -10.5309    10.9632    35.4802 </r>
       <r>   -10.4388    10.5972    36.4558 </r>
       <r>   -10.3467     2.8980    36.7226 </r>
       <r>   -10.2547     5.9117    37.2668 </r>
       <r>   -10.1626     2.0678    37.4572 </r>
       <r>   -10.0705     4.3159    37.8545 </r>
       <r>    -9.9785     4.9459    38.3098 </r>
       <r>    -9.8864    10.8332    39.3071 </r>
       <r>    -9.7944     9.9746    40.2254 </r>
       <r>    -9.7023     6.2512    40.8009 </r>
       <r>    -9.6102     8.7401    41.6055 </r>
       <r>    -9.5182     8.8967    42.4245 </r>
       <r>    -9.4261     5.4734    42.9284 </r>
       <r>    -9.3341     3.8291    43.2809 </r>
       <r>    -9.2420    10.3157    44.2306 </r>
       <r>    -9.1499    12.0460    45.3396 </r>
       <r>    -9.0579    14.7865    46.7008 </r>
       <r>    -8.9658     6.8618    47.3325 </r>
       <r>    -8.8738     3.1546    47.6229 </r>
       <r>    -8.7817    12.2846    48.7539 </r>
       <r>    -8.6896     6.9013    49.3892 </r>
       <r>    -8.5976     7.4541    50.0754 </r>
       <r>    -8.5055     7.0050    50.7203 </r>
       <r>    -8.4135     8.1082    51.4668 </r>
       <r>    -8.3214     3.3500    51.7752 </r>
       <r>    -8.2293     4.0062    52.1440 </r>
       <r>    -8.1373     5.5955    52.6591 </r>
       <r>    -8.0452    13.6937    53.9198 </r>
       <r>    -7.9532     5.3353    54.4109 </r>
       <r>    -7.8611     4.9462    54.8663 </r>
       <r>    -7.7690     1.2150    54.9781 </r>
       <r>    -7.6770     8.3513    55.7470 </r>
       <r>    -7.5849     7.0630    56.3972 </r>
       <r>    -7.4928     5.1180    56.8684 </r>
       <r>    -7.4008     2.9816    57.1428 </r>
       <r>    -7.3087     7.3150    57.8163 </r>
       <r>    -7.2167     2.3251    58.0303 </r>
       <r>    -7.1246     9.9693    58.9481 </r>
       <r>    -7.0325     7.7535    59.6619 </r>
       <r>    -6.9405     3.5393    59.9877 </r>
       <r>    -6.8484     3.5761    60.3169 </r>
       <r>    -6.7564     0.1528    60.3310 </r>
       <r>    -6.6643     4.3421    60.7307 </r>
       <r>    -6.5722    10.5302    61.7002 </r>
       <r>    -6.4802     8.8128    62.5115 </r>
       <r>    -6.3881     4.1276    62.8915 </r>
       <r>    -6.2961     4.0378    63.2632 </r>
       <r>    -6.2040     1.7748    63.4266 </r>
       <r>    -6.1119     4.9386    63.8812 </r>
       <r>    -6.0199     4.8780    64.3303 </r>
       <r>    -5.9278     2.8141    64.5894 </r>
       <r>    -5.8358     7.9339    65.3198 </r>
       <r>    -5.7437     7.1474    65.9778 </r>
       <r>    -5.6516     3.4555    66.2959 </r>
       <r>    -5.5596     3.7907    66.6448 </r>
       <r>    -5.4675     1.4752    66.7807 </r>
       <r>    -5.3755     3.1992    67.0752 </r>
       <r>    -5.2834     2.0783    67.2665 </r>
       <r>    -5.1913     1.5345    67.4078 </r>
       <r>    -5.0993     3.2647    67.7083 </r>
       <r>    -5.0072    15.5684    69.1416 </r>
       <r>    -4.9151     6.1625    69.7089 </r>
       <r>    -4.8231     0.0586    69.7143 </r>
       <r>    -4.7310     0.1426    69.7274 </r>
       <r>    -4.6390     2.0518    69.9163 </r>
       <r>    -4.5469     0.4691    69.9595 </r>
       <r>    -4.4548     1.4341    70.0915 </r>
       <r>    -4.3628     3.9505    70.4552 </r>
       <r>    -4.2707     5.0528    70.9204 </r>
       <r>    -4.1787     2.8228    71.1802 </r>
       <r>    -4.0866     0.0372    71.1837 </r>
       <r>    -3.9945     0.0111    71.1847 </r>
       <r>    -3.9025     1.2279    71.2977 </r>
       <r>    -3.8104     1.4025    71.4268 </r>
       <r>    -3.7184     0.0187    71.4286 </r>
       <r>    -3.6263     0.0153    71.4300 </r>
       <r>    -3.5342     2.2050    71.6330 </r>
       <r>    -3.4422     3.0490    71.9137 </r>
       <r>    -3.3501     0.0510    71.9184 </r>
       <r>    -3.2581     0.0000    71.9184 </r>
       <r>    -3.1660     0.0000    71.9184 </r>
       <r>    -3.0739     0.0000    71.9184 </r>
       <r>    -2.9819     0.0000    71.9184 </r>
       <r>    -2.8898     0.0004    71.9184 </r>
       <r>    -2.7978     0.2392    71.9404 </r>
       <r>    -2.7057     1.3591    72.0655 </r>
       <r>    -2.6136     0.1746    72.0816 </r>
       <r>    -2.5216     0.0002    72.0816 </r>
       <r>    -2.4295     0.0000    72.0816 </r>
       <r>    -2.3374     0.0000    72.0816 </r>
       <r>    -2.2454     0.0000    72.0816 </r>
       <r>    -2.1533     0.0001    72.0816 </r>
       <r>    -2.0613     0.3136    72.1105 </r>
       <r>    -1.9692     4.1271    72.4905 </r>
       <r>    -1.8771     0.8783    72.5713 </r>
       <r>    -1.7851     0.0586    72.5767 </r>
       <r>    -1.6930     1.7537    72.7382 </r>
       <r>    -1.6010     0.8453    72.8160 </r>
       <r>    -1.5089     0.0037    72.8163 </r>
       <r>    -1.4168     0.0037    72.8167 </r>
       <r>    -1.3248     1.9904    72.9999 </r>
       <r>    -1.2327    11.3383    74.0437 </r>
       <r>    -1.1407     2.8411    74.3053 </r>
       <r>    -1.0486     3.5202    74.6293 </r>
       <r>    -0.9565     5.7671    75.1603 </r>
       <r>    -0.8645     1.8460    75.3302 </r>
       <r>    -0.7724     4.2015    75.7170 </r>
       <r>    -0.6804     3.3864    76.0288 </r>
       <r>    -0.5883     4.7768    76.4685 </r>
       <r>    -0.4962     2.9827    76.7431 </r>
       <r>    -0.4042     3.7580    77.0891 </r>
       <r>    -0.3121     3.3297    77.3956 </r>
       <r>    -0.2201     5.1904    77.8734 </r>
       <r>    -0.1280     0.9279    77.9589 </r>
       <r>    -0.0359     0.0039    77.9592 </r>
       <r>     0.0561     0.5551    78.0103 </r>
       <r>     0.1482     4.2065    78.3976 </r>
       <r>     0.2403     1.5511    78.5404 </r>
       <r>     0.3323     4.1215    78.9198 </r>
       <r>     0.4244     3.6353    79.2545 </r>
       <r>     0.5164     3.1132    79.5411 </r>
       <r>     0.6085     3.6467    79.8768 </r>
       <r>     0.7006     1.3347    79.9997 </r>
       <r>     0.7926     5.8405    80.5373 </r>
       <r>     0.8847     5.9043    81.0809 </r>
       <r>     0.9767     1.4972    81.2187 </r>
       <r>     1.0688     4.2765    81.6124 </r>
       <r>     1.1609     1.8289    81.7808 </r>
       <r>     1.2529     5.6626    82.3021 </r>
       <r>     1.3450     2.1064    82.4960 </r>
       <r>     1.4370     6.9744    83.1381 </r>
       <r>     1.5291    13.9710    84.4243 </r>
       <r>     1.6212     4.5254    84.8409 </r>
       <r>     1.7132     4.6742    85.2712 </r>
       <r>     1.8053     3.3508    85.5797 </r>
       <r>     1.8973     8.8301    86.3926 </r>
       <r>     1.9894     8.8741    87.2095 </r>
       <r>     2.0815     9.2121    88.0576 </r>
       <r>     2.1735     6.9619    88.6985 </r>
       <r>     2.2656     6.8749    89.3314 </r>
       <r>     2.3576     7.2461    89.9985 </r>
       <r>     2.4497     5.1347    90.4712 </r>
       <r>     2.5418     4.3353    90.8703 </r>
       <r>     2.6338     2.8955    91.1369 </r>
       <r>     2.7259     2.1978    91.3392 </r>
       <r>     2.8180     4.5462    91.7577 </r>
       <r>     2.9100     2.5019    91.9881 </r>
       <r>     3.0021     0.1297    92.0000 </r>
       <r>     3.0941     0.0000    92.0000 </r>
       <r>     3.1862     0.0000    92.0000 </r>
       <r>     3.2783     0.0000    92.0000 </r>
       <r>     3.3703     0.0000    92.0000 </r>
       <r>     3.4624     0.0000    92.0000 </r>
       <r>     3.5544     0.0000    92.0000 </r>
       <r>     3.6465     0.0000    92.0000 </r>
       <r>     3.7386     0.0000    92.0000 </r>
       <r>     3.8306     0.0000    92.0000 </r>
       <r>     3.9227     0.0000    92.0000 </r>
       <r>     4.0147     0.0000    92.0000 </r>
       <r>     4.1068     0.0000    92.0000 </r>
      </set>
     </set>
    </array>
   </total>
  </dos>
 </calculation>
 <structure name="finalpos" >
  <crystal>
   <varray name="basis" >
    <v>       7.40170591       0.00000000       0.00000000 </v>
    <v>      -3.70085295       6.41006527       0.00000000 </v>
    <v>       0.00000000       0.00000000      20.00000000 </v>
   </varray>
   <i name="volume">    948.90835877 </i>
   <varray name="rec_basis" >
    <v>       0.13510399       0.07800233       0.00000000 </v>
    <v>       0.00000000       0.15600465       0.00000000 </v>
    <v>       0.00000000       0.00000000       0.05000000 </v>
   </varray>
  </crystal>
  <varray name="positions" >
   <v>       0.99942898       0.00156005       0.50000000 </v>
   <v>       0.33333333       0.00000000       0.50000000 </v>
   <v>       0.66666667       0.00000000       0.50000000 </v>
   <v>       0.00000000       0.33333333       0.50000000 </v>
   <v>       0.33333333       0.33333333       0.50000000 </v>
   <v>       0.66666667       0.33333333       0.50000000 </v>
   <v>       0.00000000       0.66666667       0.50000000 </v>
   <v>       0.33333333       0.66666667       0.50000000 </v>
   <v>       0.66666667       0.66666667       0.50000000 </v>
   <v>       0.22222222       0.11111111       0.50000000 </v>
   <v>       0.55555556       0.11111111       0.50000000 </v>
   <v>       0.88888889       0.11111111       0.50000000 </v>
   <v>       0.22222222       0.44444444       0.50000000 </v>
   <v>       0.55555556       0.44444444       0.50000000 </v>
   <v>       0.88888889       0.44444444       0.50000000 </v>
   <v>       0.22222222       0.77777778       0.50000000 </v>
   <v>       0.55555556       0.77777778       0.50000000 </v>
   <v>       0.88888889       0.77777778       0.50000000 </v>
  </varray>
 </structure>
</modeling>
