<?xml version="1.0" encoding="ISO-8859-1"?>
<modeling>
 <generator>
  <i name="program" type="string">vasp </i>
  <i name="version" type="string">6.4.1  </i>
  <i name="subversion" type="string">05Apr23 (build Feb 12 2025 00:37:39) complex                          parallel </i>
  <i name="platform" type="string">LinuxIFC </i>
  <i name="date" type="string">2025 02 14 </i>
  <i name="time" type="string">04:31:53 </i>
 </generator>
 <incar>
  <i type="string" name="SYSTEM">SCF</i>
  <i type="int" name="ISTART">     0</i>
  <i type="int" name="ICHARG">     2</i>
  <i type="int" name="NELM">    60</i>
  <i type="int" name="NELMIN">     6</i>
  <i name="EDIFF">      0.00000100</i>
  <i name="EDIFFG">     -0.00000100</i>
  <i name="ENCUT">    600.00000000</i>
  <i type="string" name="LREAL">Auto</i>
  <i type="int" name="ISMEAR">     0</i>
  <i name="SIGMA">      0.05000000</i>
  <i type="logical" name="LWAVE"> F  </i>
  <i type="logical" name="LCHARG"> F  </i>
 </incar>
 <primitive_cell>
  <structure name="primitive_cell" >
   <crystal>
    <varray name="basis" >
     <v>       7.40170591       0.00000000       0.00000000 </v>
     <v>      -3.70085295       6.41006527       0.00000000 </v>
     <v>       0.00000000       0.00000000      20.00000000 </v>
    </varray>
    <i name="volume">    948.90835877 </i>
    <varray name="rec_basis" >
     <v>       0.13510399       0.07800233       0.00000000 </v>
     <v>       0.00000000       0.15600465       0.00000000 </v>
     <v>       0.00000000       0.00000000       0.05000000 </v>
    </varray>
   </crystal>
   <varray name="positions" >
    <v>       0.99864896       0.00000000       0.50000000 </v>
    <v>       0.33333333       0.00000000       0.50000000 </v>
    <v>       0.66666667       0.00000000       0.50000000 </v>
    <v>       1.00000000       0.33333333       0.50000000 </v>
    <v>       0.33333333       0.33333333       0.50000000 </v>
    <v>       0.66666667       0.33333333       0.50000000 </v>
    <v>       1.00000000       0.66666667       0.50000000 </v>
    <v>       0.33333333       0.66666667       0.50000000 </v>
    <v>       0.66666667       0.66666667       0.50000000 </v>
    <v>       0.22300225       0.11267116       0.50000000 </v>
    <v>       0.55555556       0.11111111       0.50000000 </v>
    <v>       0.88888889       0.11111111       0.50000000 </v>
    <v>       0.22222222       0.44444444       0.50000000 </v>
    <v>       0.55555556       0.44444444       0.50000000 </v>
    <v>       0.88888889       0.44444444       0.50000000 </v>
    <v>       0.22222222       0.77777778       0.50000000 </v>
    <v>       0.55555556       0.77777778       0.50000000 </v>
    <v>       0.88888889       0.77777778       0.50000000 </v>
   </varray>
  </structure>
  <varray name="primitive_index" >
   <v type="int" >        1 </v>
   <v type="int" >        2 </v>
   <v type="int" >        3 </v>
   <v type="int" >        4 </v>
   <v type="int" >        5 </v>
   <v type="int" >        6 </v>
   <v type="int" >        7 </v>
   <v type="int" >        8 </v>
   <v type="int" >        9 </v>
   <v type="int" >       10 </v>
   <v type="int" >       11 </v>
   <v type="int" >       12 </v>
   <v type="int" >       13 </v>
   <v type="int" >       14 </v>
   <v type="int" >       15 </v>
   <v type="int" >       16 </v>
   <v type="int" >       17 </v>
   <v type="int" >       18 </v>
  </varray>
 </primitive_cell>
 <kpoints>
  <generation param="Gamma">
   <v type="int" name="divisions">       7        7        1 </v>
   <v name="usershift">      0.00000000       0.00000000       0.00000000 </v>
   <v name="genvec1">      0.14285714       0.00000000       0.00000000 </v>
   <v name="genvec2">      0.00000000       0.14285714       0.00000000 </v>
   <v name="genvec3">      0.00000000       0.00000000       1.00000000 </v>
   <v name="shift">      0.00000000       0.00000000       0.00000000 </v>
  </generation>
  <varray name="kpointlist" >
   <v>       0.00000000       0.00000000       0.00000000 </v>
   <v>       0.14285714       0.00000000       0.00000000 </v>
   <v>       0.00000000       0.14285714       0.00000000 </v>
   <v>      -0.14285714       0.14285714       0.00000000 </v>
   <v>       0.28571429       0.00000000       0.00000000 </v>
   <v>       0.00000000       0.28571429       0.00000000 </v>
   <v>      -0.28571429       0.28571429       0.00000000 </v>
   <v>       0.42857143       0.00000000       0.00000000 </v>
   <v>       0.00000000       0.42857143       0.00000000 </v>
   <v>      -0.42857143       0.42857143       0.00000000 </v>
   <v>       0.14285714       0.14285714       0.00000000 </v>
   <v>      -0.14285714       0.28571429       0.00000000 </v>
   <v>      -0.28571429       0.14285714       0.00000000 </v>
   <v>       0.28571429       0.14285714       0.00000000 </v>
   <v>      -0.14285714       0.42857143       0.00000000 </v>
   <v>      -0.42857143       0.28571429       0.00000000 </v>
   <v>      -0.28571429       0.42857143       0.00000000 </v>
   <v>       0.14285714       0.28571429       0.00000000 </v>
   <v>       0.42857143      -0.14285714       0.00000000 </v>
   <v>       0.42857143       0.14285714       0.00000000 </v>
   <v>      -0.14285714      -0.42857143       0.00000000 </v>
   <v>       0.42857143       0.42857143       0.00000000 </v>
   <v>       0.28571429       0.28571429       0.00000000 </v>
   <v>      -0.28571429      -0.42857143       0.00000000 </v>
   <v>       0.42857143       0.28571429       0.00000000 </v>
  </varray>
  <varray name="weights" >
   <v>       0.02040816 </v>
   <v>       0.04081633 </v>
   <v>       0.04081633 </v>
   <v>       0.04081633 </v>
   <v>       0.04081633 </v>
   <v>       0.04081633 </v>
   <v>       0.04081633 </v>
   <v>       0.04081633 </v>
   <v>       0.04081633 </v>
   <v>       0.04081633 </v>
   <v>       0.04081633 </v>
   <v>       0.04081633 </v>
   <v>       0.04081633 </v>
   <v>       0.04081633 </v>
   <v>       0.04081633 </v>
   <v>       0.04081633 </v>
   <v>       0.04081633 </v>
   <v>       0.04081633 </v>
   <v>       0.04081633 </v>
   <v>       0.04081633 </v>
   <v>       0.04081633 </v>
   <v>       0.04081633 </v>
   <v>       0.04081633 </v>
   <v>       0.04081633 </v>
   <v>       0.04081633 </v>
  </varray>
 </kpoints>
 <parameters>
  <separator name="general" >
   <i type="string" name="SYSTEM">SCF</i>
   <i type="logical" name="LCOMPAT"> F  </i>
  </separator>
  <separator name="electronic" >
   <i type="string" name="PREC">normal</i>
   <i name="ENMAX">    600.00000000</i>
   <i name="ENAUG">    644.87300000</i>
   <i name="EDIFF">      0.00000100</i>
   <i type="int" name="IALGO">    38</i>
   <i type="int" name="IWAVPR">    10</i>
   <i type="int" name="NBANDS">    46</i>
   <i type="int" name="NBANDSLOW">    -1</i>
   <i type="int" name="NBANDSHIGH">    -1</i>
   <i name="NELECT">     72.00000000</i>
   <i type="int" name="TURBO">     0</i>
   <i type="int" name="IRESTART">     0</i>
   <i type="int" name="NREBOOT">     0</i>
   <i type="int" name="NMIN">     0</i>
   <i name="EREF">      0.00000000</i>
   <separator name="electronic smearing" >
    <i type="int" name="ISMEAR">     0</i>
    <i name="SIGMA">      0.05000000</i>
    <i name="KSPACING">      0.50000000</i>
    <i type="logical" name="KGAMMA"> T  </i>
    <i type="logical" name="KBLOWUP"> T  </i>
   </separator>
   <separator name="electronic projectors" >
    <i type="logical" name="LREAL"> T  </i>
    <v name="ROPT">     -0.00050000</v>
    <i type="int" name="LMAXPAW">  -100</i>
    <i type="int" name="LMAXMIX">     2</i>
    <i type="logical" name="NLSPLINE"> F  </i>
   </separator>
   <separator name="electronic startup" >
    <i type="int" name="ISTART">     0</i>
    <i type="int" name="ICHARG">     2</i>
    <i type="int" name="INIWAV">     1</i>
   </separator>
   <separator name="electronic spin" >
    <i type="int" name="ISPIN">     1</i>
    <i type="logical" name="LNONCOLLINEAR"> F  </i>
    <v name="MAGMOM">      1.00000000      1.00000000      1.00000000      1.00000000      1.00000000      1.00000000      1.00000000      1.00000000      1.00000000      1.00000000      1.00000000      1.00000000      1.00000000      1.00000000      1.00000000      1.00000000      1.00000000      1.00000000</v>
    <i name="NUPDOWN">     -1.00000000</i>
    <i type="logical" name="LSORBIT"> F  </i>
    <v name="SAXIS">      0.00000000      0.00000000      1.00000000</v>
    <i type="logical" name="LSPIRAL"> F  </i>
    <v name="QSPIRAL">      0.00000000      0.00000000      0.00000000</v>
    <i type="logical" name="LZEROZ"> F  </i>
   </separator>
   <separator name="electronic exchange-correlation" >
    <i type="logical" name="LASPH"> F  </i>
    <i type="logical" name="LMETAGGA"> F  </i>
   </separator>
   <separator name="electronic convergence" >
    <i type="int" name="NELM">    60</i>
    <i type="int" name="NELMDL">    -5</i>
    <i type="int" name="NELMIN">     6</i>
    <i name="ENINI">    600.00000000</i>
    <separator name="electronic convergence detail" >
     <i type="logical" name="LDIAG"> T  </i>
     <i type="logical" name="LSUBROT"> F  </i>
     <i name="WEIMIN">      0.00000000</i>
     <i name="EBREAK">      0.00000000</i>
     <i name="DEPER">      0.30000000</i>
     <i type="int" name="NRMM">     4</i>
     <i name="TIME">      0.40000000</i>
    </separator>
   </separator>
   <separator name="electronic mixer" >
    <i name="AMIX">      0.40000000</i>
    <i name="BMIX">      1.00000000</i>
    <i name="AMIN">      0.10000000</i>
    <i name="AMIX_MAG">      1.60000000</i>
    <i name="BMIX_MAG">      1.00000000</i>
    <separator name="electronic mixer details" >
     <i type="int" name="IMIX">     4</i>
     <i type="logical" name="MIXFIRST"> F  </i>
     <i type="int" name="MAXMIX">   -45</i>
     <i name="WC">    100.00000000</i>
     <i type="int" name="INIMIX">     1</i>
     <i type="int" name="MIXPRE">     1</i>
     <i type="int" name="MREMOVE">     5</i>
    </separator>
   </separator>
   <separator name="electronic dipolcorrection" >
    <i type="logical" name="LDIPOL"> F  </i>
    <i type="logical" name="LMONO"> F  </i>
    <i type="int" name="IDIPOL">     0</i>
    <i name="EPSILON">      1.00000000</i>
    <v name="DIPOL">   -100.00000000   -100.00000000   -100.00000000</v>
    <i name="EFIELD">      0.00000000</i>
   </separator>
  </separator>
  <separator name="grids" >
   <i type="int" name="NGX">    48</i>
   <i type="int" name="NGY">    48</i>
   <i type="int" name="NGZ">   120</i>
   <i type="int" name="NGXF">    96</i>
   <i type="int" name="NGYF">    96</i>
   <i type="int" name="NGZF">   240</i>
   <i type="logical" name="ADDGRID"> F  </i>
  </separator>
  <separator name="ionic" >
   <i type="int" name="NSW">     0</i>
   <i type="int" name="IBRION">    -1</i>
   <i type="int" name="MDALGO">     0</i>
   <i type="int" name="ISIF">     2</i>
   <i name="PSTRESS">      0.00000000</i>
   <i name="EDIFFG">     -0.00000100</i>
   <i type="int" name="NFREE">     0</i>
   <i name="POTIM">      0.50000000</i>
   <i name="SMASS">     -3.00000000</i>
   <i name="SCALEE">      1.00000000</i>
  </separator>
  <separator name="ionic md" >
   <i name="TEBEG">      0.00010000</i>
   <i name="TEEND">      0.00010000</i>
   <i type="int" name="NBLOCK">     1</i>
   <i type="int" name="KBLOCK">     1</i>
   <i type="int" name="NPACO">   256</i>
   <i name="APACO">     10.00000000</i>
  </separator>
  <separator name="symmetry" >
   <i type="int" name="ISYM">     2</i>
   <i name="SYMPREC">      0.00001000</i>
  </separator>
  <separator name="dos" >
   <i type="int" name="LORBIT">     0</i>
   <v name="RWIGS">     -1.00000000</v>
   <i type="int" name="NEDOS">   301</i>
   <i name="EMIN">     10.00000000</i>
   <i name="EMAX">    -10.00000000</i>
   <i name="EFERMI">      0.00000000</i>
  </separator>
  <separator name="writing" >
   <i type="int" name="NWRITE">     2</i>
   <i type="logical" name="LWAVE"> F  </i>
   <i type="logical" name="LDOWNSAMPLE"> F  </i>
   <i type="logical" name="LCHARG"> F  </i>
   <i type="logical" name="LPARD"> F  </i>
   <i type="logical" name="LVTOT"> F  </i>
   <i type="logical" name="LVHAR"> F  </i>
   <i type="logical" name="LELF"> F  </i>
   <i type="logical" name="LOPTICS"> F  </i>
   <v name="STM">      0.00000000      0.00000000      0.00000000      0.00000000      0.00000000      0.00000000      0.00000000</v>
  </separator>
  <separator name="performance" >
   <i type="int" name="NPAR">     2</i>
   <i type="int" name="NSIM">     4</i>
   <i type="int" name="NBLK">    -1</i>
   <i type="logical" name="LPLANE"> T  </i>
   <i type="logical" name="LSCALAPACK"> T  </i>
   <i type="logical" name="LSCAAWARE"> F  </i>
   <i type="logical" name="LSCALU"> F  </i>
   <i type="logical" name="LASYNC"> F  </i>
   <i type="logical" name="LORBITALREAL"> F  </i>
  </separator>
  <separator name="miscellaneous" >
   <i type="int" name="IDIOT">     3</i>
   <i type="int" name="PHON_NSTRUCT">    -1</i>
   <i type="logical" name="LMUSIC"> F  </i>
   <v name="POMASS">     12.01100000</v>
   <v name="DARWINR">      0.00000000</v>
   <v name="DARWINV">      1.00000000</v>
   <i type="logical" name="LCORR"> T  </i>
  </separator>
  <i type="logical" name="GGA_COMPAT"> T  </i>
  <i type="logical" name="LBERRY"> F  </i>
  <i type="int" name="ICORELEVEL">     0</i>
  <i type="logical" name="LDAU"> F  </i>
  <i type="int" name="I_CONSTRAINED_M">     0</i>
  <separator name="electronic exchange-correlation" >
   <i type="string" name="GGA">--</i>
   <i type="int" name="VOSKOWN">     0</i>
   <i type="logical" name="LHFCALC"> F  </i>
   <i type="string" name="PRECFOCK"></i>
   <i type="logical" name="LSYMGRAD"> F  </i>
   <i type="logical" name="LHFONE"> F  </i>
   <i type="logical" name="LRHFCALC"> F  </i>
   <i type="logical" name="LTHOMAS"> F  </i>
   <i type="logical" name="LMODELHF"> F  </i>
   <i type="logical" name="LFOCKACE"> F  </i>
   <i name="ENCUT4O">     -1.00000000</i>
   <i type="int" name="EXXOEP">     0</i>
   <i type="int" name="FOURORBIT">     0</i>
   <i name="AEXX">      0.00000000</i>
   <i name="HFALPHA">      0.00000000</i>
   <i name="MCALPHA">      0.00000000</i>
   <i name="ALDAX">      1.00000000</i>
   <i name="AGGAX">      1.00000000</i>
   <i name="ALDAC">      1.00000000</i>
   <i name="AGGAC">      1.00000000</i>
   <i type="int" name="NKREDX">     1</i>
   <i type="int" name="NKREDY">     1</i>
   <i type="int" name="NKREDZ">     1</i>
   <i type="logical" name="SHIFTRED"> F  </i>
   <i type="logical" name="ODDONLY"> F  </i>
   <i type="logical" name="EVENONLY"> F  </i>
   <i type="int" name="LMAXFOCK">     0</i>
   <i type="int" name="NMAXFOCKAE">     0</i>
   <i type="logical" name="LFOCKAEDFT"> F  </i>
   <i name="HFSCREEN">      0.00000000</i>
   <i name="HFSCREENC">      0.00000000</i>
   <i type="int" name="NBANDSGWLOW">     0</i>
  </separator>
  <separator name="vdW DFT" >
   <i type="logical" name="LUSE_VDW"> F  </i>
   <i type="int" name="IVDW_NL">     1</i>
   <i type="logical" name="LSPIN_VDW"> F  </i>
   <i name="Zab_VDW">     -0.84910000</i>
   <i name="PARAM1">      0.12340000</i>
   <i name="PARAM2">      1.00000000</i>
   <i name="PARAM3">      0.00000000</i>
  </separator>
  <separator name="model GW" >
   <i type="int" name="MODEL_GW">     0</i>
   <i name="MODEL_EPS0">     31.63027863</i>
   <i name="MODEL_ALPHA">      1.00000000</i>
  </separator>
  <separator name="linear response parameters" >
   <i type="logical" name="LEPSILON"> F  </i>
   <i type="logical" name="LRPA"> F  </i>
   <i type="logical" name="LNABLA"> F  </i>
   <i type="logical" name="LVEL"> F  </i>
   <i name="CSHIFT">      0.10000000</i>
   <i name="OMEGAMAX">     -1.00000000</i>
   <i name="DEG_THRESHOLD">      0.00200000</i>
   <i name="RTIME">     -0.10000000</i>
   <i name="WPLASMAI">      0.00000000</i>
   <v name="DFIELD">      0.00000000      0.00000000      0.00000000</v>
   <v name="WPLASMA">      0.00000000      0.00000000      0.00000000      0.00000000      0.00000000      0.00000000      0.00000000      0.00000000      0.00000000</v>
  </separator>
  <separator name="orbital magnetization" >
   <i type="logical" name="NUCIND"> F  </i>
   <v name="MAGPOS">      0.00000000      0.00000000      0.00000000</v>
   <i type="logical" name="LNICSALL"> T  </i>
   <i type="logical" name="ORBITALMAG"> F  </i>
   <i type="logical" name="LMAGBLOCH"> F  </i>
   <i type="logical" name="LCHIMAG"> F  </i>
   <i type="logical" name="LGAUGE"> T  </i>
   <i type="int" name="MAGATOM">     0</i>
   <v name="MAGDIPOL">      0.00000000      0.00000000      0.00000000</v>
   <v name="AVECCONST">      0.00000000      0.00000000      0.00000000</v>
  </separator>
  <separator name="response functions" >
   <i type="logical" name="LALL_IN_ONE"> F  </i>
   <i type="int" name="IALL_IN_ONE">    -1</i>
   <i type="int" name="NBANDS_WAVE">    -1</i>
   <i type="logical" name="LFINITE_TEMPERATURE"> F  </i>
   <i type="logical" name="LADDER"> F  </i>
   <i type="logical" name="LRPAFORCE"> F  </i>
   <i type="logical" name="LFXC"> F  </i>
   <i type="logical" name="LHARTREE"> T  </i>
   <i type="int" name="IBSE">     0</i>
   <v type="int" name="KPOINT">    -1     0     0     0</v>
   <i type="logical" name="LTCTC"> F  </i>
   <i type="logical" name="LTCTE"> F  </i>
   <i type="logical" name="LTETE"> F  </i>
   <i type="logical" name="LTRIPLET"> F  </i>
   <i type="logical" name="LFXCEPS"> F  </i>
   <i type="logical" name="LFXHEG"> F  </i>
   <i type="int" name="NATURALO">     2</i>
   <i type="logical" name="LHOLEGF"> F  </i>
   <i type="logical" name="L2ORDER"> F  </i>
   <i type="logical" name="LDMP1"> F  </i>
   <i type="logical" name="LMP2LT"> F  </i>
   <i type="logical" name="LSMP2LT"> F  </i>
   <i type="logical" name="LGWLF"> F  </i>
   <i name="ENCUTGW">     -1.60000002</i>
   <i name="ENCUTGWSOFT">     -1.60000002</i>
   <i name="ENCUTLF">     -1.00000000</i>
   <i type="logical" name="LESF_SPLINES"> F  </i>
   <i type="int" name="LMAXMP2">    -1</i>
   <i name="SCISSOR">      0.00000000</i>
   <i type="int" name="NOMEGA">     0</i>
   <i type="int" name="NOMEGAR">     0</i>
   <i type="int" name="NBANDSGW">    -1</i>
   <i type="int" name="NBANDSO">    -1</i>
   <i type="int" name="NBANDSV">    -1</i>
   <i type="int" name="NELMGW">     1</i>
   <i type="int" name="NELMHF">     1</i>
   <i type="int" name="DIM">     3</i>
   <i type="int" name="IESPILON">     4</i>
   <i type="int" name="ANTIRES">     0</i>
   <i name="OMEGAMAX">    -30.00000000</i>
   <i name="OMEGAMIN">    -30.00000000</i>
   <i name="OMEGATL">   -200.00000000</i>
   <i type="int" name="OMEGAGRID">     0</i>
   <i name="CSHIFT">     -0.10000000</i>
   <i type="logical" name="LSELFENERGY"> F  </i>
   <i type="logical" name="LSPECTRAL"> F  </i>
   <i type="logical" name="LSPECTRALGW"> F  </i>
   <i type="logical" name="LSINGLES"> F  </i>
   <i type="logical" name="LFERMIGW"> F  </i>
   <i type="logical" name="ODDONLYGW"> F  </i>
   <i type="logical" name="EVENONLYGW"> F  </i>
   <i type="int" name="NKREDLFX">     1</i>
   <i type="int" name="NKREDLFY">     1</i>
   <i type="int" name="NKREDLFZ">     1</i>
   <i type="int" name="MAXMEM">  2800</i>
   <i type="int" name="TELESCOPE">     0</i>
   <i type="int" name="NTAUPAR">    -1</i>
   <i type="int" name="NOMEGAPAR">    -1</i>
   <i name="DAMP_NEWTON">      0.80000001</i>
   <i name="LAMBDA">      1.00000000</i>
  </separator>
  <separator name="External order field" >
   <i name="OFIELD_KAPPA">      0.00000000</i>
   <v name="OFIELD_K">      0.00000000      0.00000000      0.00000000</v>
   <i name="OFIELD_Q6_NEAR">      0.00000000</i>
   <i name="OFIELD_Q6_FAR">      0.00000000</i>
   <i name="OFIELD_A">      0.00000000</i>
  </separator>
  <separator name="optional k-points parameters" >
   <i type="int" name="KPOINTS_OPT_MODE">     1</i>
   <i type="logical" name="LKPOINTS_OPT"> F  </i>
  </separator>
 </parameters>
 <atominfo>
  <atoms>      18 </atoms>
  <types>       1 </types>
  <array name="atoms" >
   <dimension dim="1">ion</dimension>
   <field type="string">element</field>
   <field type="int">atomtype</field>
   <set>
    <rc><c>C </c><c>   1</c></rc>
    <rc><c>C </c><c>   1</c></rc>
    <rc><c>C </c><c>   1</c></rc>
    <rc><c>C </c><c>   1</c></rc>
    <rc><c>C </c><c>   1</c></rc>
    <rc><c>C </c><c>   1</c></rc>
    <rc><c>C </c><c>   1</c></rc>
    <rc><c>C </c><c>   1</c></rc>
    <rc><c>C </c><c>   1</c></rc>
    <rc><c>C </c><c>   1</c></rc>
    <rc><c>C </c><c>   1</c></rc>
    <rc><c>C </c><c>   1</c></rc>
    <rc><c>C </c><c>   1</c></rc>
    <rc><c>C </c><c>   1</c></rc>
    <rc><c>C </c><c>   1</c></rc>
    <rc><c>C </c><c>   1</c></rc>
    <rc><c>C </c><c>   1</c></rc>
    <rc><c>C </c><c>   1</c></rc>
   </set>
  </array>
  <array name="atomtypes" >
   <dimension dim="1">type</dimension>
   <field type="int">atomspertype</field>
   <field type="string">element</field>
   <field>mass</field>
   <field>valence</field>
   <field type="string">pseudopotential</field>
   <set>
    <rc><c>  18</c><c>C </c><c>     12.01100000</c><c>      4.00000000</c><c>  PAW_PBE C 08Apr2002                   </c></rc>
   </set>
  </array>
 </atominfo>
 <structure name="initialpos" >
  <crystal>
   <varray name="basis" >
    <v>       7.40170591       0.00000000       0.00000000 </v>
    <v>      -3.70085295       6.41006527       0.00000000 </v>
    <v>       0.00000000       0.00000000      20.00000000 </v>
   </varray>
   <i name="volume">    948.90835877 </i>
   <varray name="rec_basis" >
    <v>       0.13510399       0.07800233       0.00000000 </v>
    <v>       0.00000000       0.15600465       0.00000000 </v>
    <v>       0.00000000       0.00000000       0.05000000 </v>
   </varray>
  </crystal>
  <varray name="positions" >
   <v>       0.99864896       0.00000000       0.50000000 </v>
   <v>       0.33333333       0.00000000       0.50000000 </v>
   <v>       0.66666667       0.00000000       0.50000000 </v>
   <v>       0.00000000       0.33333333       0.50000000 </v>
   <v>       0.33333333       0.33333333       0.50000000 </v>
   <v>       0.66666667       0.33333333       0.50000000 </v>
   <v>       0.00000000       0.66666667       0.50000000 </v>
   <v>       0.33333333       0.66666667       0.50000000 </v>
   <v>       0.66666667       0.66666667       0.50000000 </v>
   <v>       0.22300225       0.11267116       0.50000000 </v>
   <v>       0.55555556       0.11111111       0.50000000 </v>
   <v>       0.88888889       0.11111111       0.50000000 </v>
   <v>       0.22222222       0.44444444       0.50000000 </v>
   <v>       0.55555556       0.44444444       0.50000000 </v>
   <v>       0.88888889       0.44444444       0.50000000 </v>
   <v>       0.22222222       0.77777778       0.50000000 </v>
   <v>       0.55555556       0.77777778       0.50000000 </v>
   <v>       0.88888889       0.77777778       0.50000000 </v>
  </varray>
 </structure>
 <calculation>
  <scstep>
   <time name="dav">    5.97    6.20</time>
   <time name="total">    6.07    6.30</time>
   <energy>
    <i name="alphaZ">     28.04858418 </i>
    <i name="ewald">  11638.88718849 </i>
    <i name="hartreedc"> -13553.18630234 </i>
    <i name="XCdc">    237.17793130 </i>
    <i name="pawpsdc">   1953.39683484 </i>
    <i name="pawaedc">  -1963.64613940 </i>
    <i name="eentropy">     -0.00853237 </i>
    <i name="bandstr">   -257.79022650 </i>
    <i name="atom">   2648.70517965 </i>
    <i name="e_fr_energy">    731.58451785 </i>
    <i name="e_wo_entrp">    731.59305022 </i>
    <i name="e_0_energy">    731.58878403 </i>
   </energy>
  </scstep>
  <scstep>
   <time name="dav">    7.97    7.09</time>
   <time name="total">    7.97    7.09</time>
   <energy>
    <i name="e_fr_energy">    -23.90767698 </i>
    <i name="e_wo_entrp">    -23.90739143 </i>
    <i name="e_0_energy">    -23.90753421 </i>
   </energy>
  </scstep>
  <scstep>
   <time name="dav">    6.41    6.64</time>
   <time name="total">    6.41    6.64</time>
   <energy>
    <i name="e_fr_energy">   -172.28052879 </i>
    <i name="e_wo_entrp">   -172.27949464 </i>
    <i name="e_0_energy">   -172.28001171 </i>
   </energy>
  </scstep>
  <scstep>
   <time name="dav">    6.34    6.57</time>
   <time name="total">    6.34    6.58</time>
   <energy>
    <i name="e_fr_energy">   -177.34842673 </i>
    <i name="e_wo_entrp">   -177.34653705 </i>
    <i name="e_0_energy">   -177.34748189 </i>
   </energy>
  </scstep>
  <scstep>
   <time name="dav">    7.25    7.51</time>
   <time name="total">    7.51    7.78</time>
   <energy>
    <i name="e_fr_energy">   -177.48443463 </i>
    <i name="e_wo_entrp">   -177.48250528 </i>
    <i name="e_0_energy">   -177.48346995 </i>
   </energy>
  </scstep>
  <scstep>
   <time name="dav">    5.97    6.19</time>
   <time name="total">    6.32    6.55</time>
   <energy>
    <i name="e_fr_energy">   -169.31595710 </i>
    <i name="e_wo_entrp">   -169.31394795 </i>
    <i name="e_0_energy">   -169.31495253 </i>
   </energy>
  </scstep>
  <scstep>
   <time name="dav">    5.92    4.99</time>
   <time name="total">    6.26    5.35</time>
   <energy>
    <i name="e_fr_energy">   -166.14803530 </i>
    <i name="e_wo_entrp">   -166.14598392 </i>
    <i name="e_0_energy">   -166.14700961 </i>
   </energy>
  </scstep>
  <scstep>
   <time name="dav">    6.22    6.45</time>
   <time name="total">    6.57    6.81</time>
   <energy>
    <i name="e_fr_energy">   -166.08500213 </i>
    <i name="e_wo_entrp">   -166.08296795 </i>
    <i name="e_0_energy">   -166.08398504 </i>
   </energy>
  </scstep>
  <scstep>
   <time name="dav">    6.66    6.90</time>
   <time name="total">    7.01    7.26</time>
   <energy>
    <i name="e_fr_energy">   -166.07211581 </i>
    <i name="e_wo_entrp">   -166.07007686 </i>
    <i name="e_0_energy">   -166.07109633 </i>
   </energy>
  </scstep>
  <scstep>
   <time name="dav">    5.78    5.99</time>
   <time name="total">    6.13    6.36</time>
   <energy>
    <i name="e_fr_energy">   -166.05365312 </i>
    <i name="e_wo_entrp">   -166.05161039 </i>
    <i name="e_0_energy">   -166.05263175 </i>
   </energy>
  </scstep>
  <scstep>
   <time name="dav">    5.78    4.84</time>
   <time name="total">    6.13    5.21</time>
   <energy>
    <i name="e_fr_energy">   -166.05670738 </i>
    <i name="e_wo_entrp">   -166.05466686 </i>
    <i name="e_0_energy">   -166.05568712 </i>
   </energy>
  </scstep>
  <scstep>
   <time name="dav">    5.88    6.09</time>
   <time name="total">    6.23    6.46</time>
   <energy>
    <i name="e_fr_energy">   -166.06133049 </i>
    <i name="e_wo_entrp">   -166.05929085 </i>
    <i name="e_0_energy">   -166.06031067 </i>
   </energy>
  </scstep>
  <scstep>
   <time name="dav">    5.66    5.87</time>
   <time name="total">    6.01    6.23</time>
   <energy>
    <i name="e_fr_energy">   -166.06561945 </i>
    <i name="e_wo_entrp">   -166.06357898 </i>
    <i name="e_0_energy">   -166.06459921 </i>
   </energy>
  </scstep>
  <scstep>
   <time name="dav">    5.69    5.90</time>
   <time name="total">    6.04    6.26</time>
   <energy>
    <i name="e_fr_energy">   -166.06925439 </i>
    <i name="e_wo_entrp">   -166.06721368 </i>
    <i name="e_0_energy">   -166.06823404 </i>
   </energy>
  </scstep>
  <scstep>
   <time name="dav">    5.78    6.00</time>
   <time name="total">    6.13    6.36</time>
   <energy>
    <i name="e_fr_energy">   -166.07094052 </i>
    <i name="e_wo_entrp">   -166.06889974 </i>
    <i name="e_0_energy">   -166.06992013 </i>
   </energy>
  </scstep>
  <scstep>
   <time name="dav">    5.96    6.18</time>
   <time name="total">    6.31    6.54</time>
   <energy>
    <i name="e_fr_energy">   -166.07107700 </i>
    <i name="e_wo_entrp">   -166.06903632 </i>
    <i name="e_0_energy">   -166.07005666 </i>
   </energy>
  </scstep>
  <scstep>
   <time name="dav">    5.65    4.70</time>
   <time name="total">    6.00    5.06</time>
   <energy>
    <i name="e_fr_energy">   -166.07129633 </i>
    <i name="e_wo_entrp">   -166.06925583 </i>
    <i name="e_0_energy">   -166.07027608 </i>
   </energy>
  </scstep>
  <scstep>
   <time name="dav">    5.05    5.24</time>
   <time name="total">    5.40    5.60</time>
   <energy>
    <i name="e_fr_energy">   -166.07135204 </i>
    <i name="e_wo_entrp">   -166.06931145 </i>
    <i name="e_0_energy">   -166.07033175 </i>
   </energy>
  </scstep>
  <scstep>
   <time name="dav">    5.00    5.19</time>
   <time name="total">    5.37    5.57</time>
   <energy>
    <i name="e_fr_energy">   -166.07138670 </i>
    <i name="e_wo_entrp">   -166.06934604 </i>
    <i name="e_0_energy">   -166.07036637 </i>
   </energy>
  </scstep>
  <scstep>
   <time name="dav">    4.84    5.03</time>
   <time name="total">    5.20    5.41</time>
   <energy>
    <i name="e_fr_energy">   -166.07141449 </i>
    <i name="e_wo_entrp">   -166.06937388 </i>
    <i name="e_0_energy">   -166.07039419 </i>
   </energy>
  </scstep>
  <scstep>
   <time name="dav">    3.91    4.06</time>
   <time name="total">    4.26    4.43</time>
   <energy>
    <i name="e_fr_energy">   -166.07142346 </i>
    <i name="e_wo_entrp">   -166.06938284 </i>
    <i name="e_0_energy">   -166.07040315 </i>
   </energy>
  </scstep>
  <scstep>
   <time name="dav">    3.84    3.99</time>
   <time name="total">    4.20    4.36</time>
   <energy>
    <i name="e_fr_energy">   -166.07142672 </i>
    <i name="e_wo_entrp">   -166.06938611 </i>
    <i name="e_0_energy">   -166.07040641 </i>
   </energy>
  </scstep>
  <scstep>
   <time name="dav">    3.95    2.94</time>
   <time name="total">    4.04    3.03</time>
   <energy>
    <i name="alphaZ">     28.04858418 </i>
    <i name="ewald">  11638.88718849 </i>
    <i name="hartreedc"> -13861.53458612 </i>
    <i name="XCdc">    247.81489983 </i>
    <i name="pawpsdc">   7453.15237937 </i>
    <i name="pawaedc">  -7465.41588775 </i>
    <i name="eentropy">     -0.00204061 </i>
    <i name="bandstr">   -855.72714417 </i>
    <i name="atom">   2648.70517965 </i>
    <i name="e_fr_energy">   -166.07142712 </i>
    <i name="e_wo_entrp">   -166.06938651 </i>
    <i name="e_0_energy">   -166.07040682 </i>
   </energy>
  </scstep>
  <structure>
   <crystal>
    <varray name="basis" >
     <v>       7.40170591       0.00000000       0.00000000 </v>
     <v>      -3.70085295       6.41006527       0.00000000 </v>
     <v>       0.00000000       0.00000000      20.00000000 </v>
    </varray>
    <i name="volume">    948.90835877 </i>
    <varray name="rec_basis" >
     <v>       0.13510399       0.07800233       0.00000000 </v>
     <v>       0.00000000       0.15600465       0.00000000 </v>
     <v>       0.00000000       0.00000000       0.05000000 </v>
    </varray>
   </crystal>
   <varray name="positions" >
    <v>       0.99864896       0.00000000       0.50000000 </v>
    <v>       0.33333333       0.00000000       0.50000000 </v>
    <v>       0.66666667       0.00000000       0.50000000 </v>
    <v>       0.00000000       0.33333333       0.50000000 </v>
    <v>       0.33333333       0.33333333       0.50000000 </v>
    <v>       0.66666667       0.33333333       0.50000000 </v>
    <v>       0.00000000       0.66666667       0.50000000 </v>
    <v>       0.33333333       0.66666667       0.50000000 </v>
    <v>       0.66666667       0.66666667       0.50000000 </v>
    <v>       0.22300225       0.11267116       0.50000000 </v>
    <v>       0.55555556       0.11111111       0.50000000 </v>
    <v>       0.88888889       0.11111111       0.50000000 </v>
    <v>       0.22222222       0.44444444       0.50000000 </v>
    <v>       0.55555556       0.44444444       0.50000000 </v>
    <v>       0.88888889       0.44444444       0.50000000 </v>
    <v>       0.22222222       0.77777778       0.50000000 </v>
    <v>       0.55555556       0.77777778       0.50000000 </v>
    <v>       0.88888889       0.77777778       0.50000000 </v>
   </varray>
  </structure>
  <varray name="forces" >
   <v>       0.64388976       0.12808143      -0.00000000 </v>
   <v>      -0.10160493       0.15192622       0.00000000 </v>
   <v>      -0.05039066      -0.03761253       0.00000000 </v>
   <v>       0.02908567       0.05465948       0.00000000 </v>
   <v>       0.00604145       0.19841637      -0.00000000 </v>
   <v>      -0.05230295       0.00948509       0.00000000 </v>
   <v>       0.00550774      -0.01133907       0.00000000 </v>
   <v>      -0.03926764      -0.00652862      -0.00000000 </v>
   <v>       0.01664367      -0.02569118       0.00000000 </v>
   <v>      -0.19103324      -0.65601869       0.00000000 </v>
   <v>      -0.01287438      -0.02507143      -0.00000000 </v>
   <v>      -0.19526876       0.03410280      -0.00000000 </v>
   <v>      -0.06792404       0.03154954       0.00000000 </v>
   <v>       0.06455707       0.02157056       0.00000000 </v>
   <v>       0.01809565       0.03961908       0.00000000 </v>
   <v>      -0.00124822       0.00910436       0.00000000 </v>
   <v>       0.01703445       0.05268982       0.00000000 </v>
   <v>      -0.08894064       0.03105674       0.00000000 </v>
  </varray>
  <varray name="stress" >
   <v>      -0.20526335      -0.07133209       0.00000000 </v>
   <v>      -0.07133208      -0.06470560       0.00000000 </v>
   <v>       0.00000000       0.00000000      -0.56583930 </v>
  </varray>
  <energy>
   <i name="e_fr_energy">   -166.07142712 </i>
   <i name="e_wo_entrp">   -166.06938651 </i>
   <i name="e_0_energy">   -166.07040682 </i>
  </energy>
  <time name="totalsc">  143.07  142.56</time>
  <eigenvalues>
   <array>
    <dimension dim="1">band</dimension>
    <dimension dim="2">kpoint</dimension>
    <dimension dim="3">spin</dimension>
    <field>eigene</field>
    <field>occ</field>
    <set>
     <set comment="spin 1">
      <set comment="kpoint 1">
       <r>  -22.2561    1.0000 </r>
       <r>  -19.6954    1.0000 </r>
       <r>  -19.6877    1.0000 </r>
       <r>  -19.6764    1.0000 </r>
       <r>  -19.6744    1.0000 </r>
       <r>  -19.6705    1.0000 </r>
       <r>  -19.6364    1.0000 </r>
       <r>  -15.3632    1.0000 </r>
       <r>  -15.3486    1.0000 </r>
       <r>  -15.3330    1.0000 </r>
       <r>  -15.3187    1.0000 </r>
       <r>  -13.2944    1.0000 </r>
       <r>  -13.2849    1.0000 </r>
       <r>  -12.4111    1.0000 </r>
       <r>  -12.3842    1.0000 </r>
       <r>  -12.3782    1.0000 </r>
       <r>  -12.3729    1.0000 </r>
       <r>  -12.3596    1.0000 </r>
       <r>  -12.3415    1.0000 </r>
       <r>  -10.3600    1.0000 </r>
       <r>   -8.5475    1.0000 </r>
       <r>   -8.5439    1.0000 </r>
       <r>   -8.5276    1.0000 </r>
       <r>   -8.5225    1.0000 </r>
       <r>   -8.5197    1.0000 </r>
       <r>   -8.4799    1.0000 </r>
       <r>   -7.3916    1.0000 </r>
       <r>   -7.3814    1.0000 </r>
       <r>   -7.3723    1.0000 </r>
       <r>   -7.3713    1.0000 </r>
       <r>   -7.3685    1.0000 </r>
       <r>   -7.3408    1.0000 </r>
       <r>   -5.8074    1.0000 </r>
       <r>   -5.7608    1.0000 </r>
       <r>   -2.7802    0.7598 </r>
       <r>   -2.7595    0.5482 </r>
       <r>   -2.7510    0.4519 </r>
       <r>   -2.7303    0.2402 </r>
       <r>    0.5196    0.0000 </r>
       <r>    1.3118    0.0000 </r>
       <r>    1.6351    0.0000 </r>
       <r>    2.1058    0.0000 </r>
       <r>    2.1409    0.0000 </r>
       <r>    2.1426    0.0000 </r>
       <r>    2.1434    0.0000 </r>
       <r>    2.1557    0.0000 </r>
      </set>
      <set comment="kpoint 2">
       <r>  -22.2025    1.0000 </r>
       <r>  -20.3492    1.0000 </r>
       <r>  -19.9954    1.0000 </r>
       <r>  -19.9738    1.0000 </r>
       <r>  -19.2738    1.0000 </r>
       <r>  -19.2516    1.0000 </r>
       <r>  -18.9056    1.0000 </r>
       <r>  -16.0060    1.0000 </r>
       <r>  -15.9839    1.0000 </r>
       <r>  -14.9208    1.0000 </r>
       <r>  -14.9081    1.0000 </r>
       <r>  -13.5904    1.0000 </r>
       <r>  -12.9853    1.0000 </r>
       <r>  -12.9713    1.0000 </r>
       <r>  -12.9541    1.0000 </r>
       <r>  -12.9478    1.0000 </r>
       <r>  -11.7490    1.0000 </r>
       <r>  -11.7316    1.0000 </r>
       <r>  -11.1078    1.0000 </r>
       <r>  -10.2961    1.0000 </r>
       <r>   -8.8693    1.0000 </r>
       <r>   -8.8552    1.0000 </r>
       <r>   -8.8341    1.0000 </r>
       <r>   -8.5134    1.0000 </r>
       <r>   -8.4904    1.0000 </r>
       <r>   -8.1438    1.0000 </r>
       <r>   -8.1290    1.0000 </r>
       <r>   -7.7216    1.0000 </r>
       <r>   -7.7028    1.0000 </r>
       <r>   -6.9307    1.0000 </r>
       <r>   -6.9125    1.0000 </r>
       <r>   -6.5611    1.0000 </r>
       <r>   -5.9833    1.0000 </r>
       <r>   -5.9211    1.0000 </r>
       <r>   -3.5313    1.0000 </r>
       <r>   -3.5215    1.0000 </r>
       <r>   -2.0083    0.0000 </r>
       <r>   -2.0015    0.0000 </r>
       <r>    0.5922    0.0000 </r>
       <r>    0.8855    0.0000 </r>
       <r>    1.3854    0.0000 </r>
       <r>    1.4594    0.0000 </r>
       <r>    1.4819    0.0000 </r>
       <r>    1.7095    0.0000 </r>
       <r>    2.6300    0.0000 </r>
       <r>    2.7437    0.0000 </r>
      </set>
      <set comment="kpoint 3">
       <r>  -22.2025    1.0000 </r>
       <r>  -20.3497    1.0000 </r>
       <r>  -19.9909    1.0000 </r>
       <r>  -19.9777    1.0000 </r>
       <r>  -19.2691    1.0000 </r>
       <r>  -19.2556    1.0000 </r>
       <r>  -18.9060    1.0000 </r>
       <r>  -16.0007    1.0000 </r>
       <r>  -15.9911    1.0000 </r>
       <r>  -14.9203    1.0000 </r>
       <r>  -14.9046    1.0000 </r>
       <r>  -13.6031    1.0000 </r>
       <r>  -12.9786    1.0000 </r>
       <r>  -12.9673    1.0000 </r>
       <r>  -12.9579    1.0000 </r>
       <r>  -12.9452    1.0000 </r>
       <r>  -11.7414    1.0000 </r>
       <r>  -11.7212    1.0000 </r>
       <r>  -11.1242    1.0000 </r>
       <r>  -10.2960    1.0000 </r>
       <r>   -8.8765    1.0000 </r>
       <r>   -8.8624    1.0000 </r>
       <r>   -8.8179    1.0000 </r>
       <r>   -8.5251    1.0000 </r>
       <r>   -8.5035    1.0000 </r>
       <r>   -8.1261    1.0000 </r>
       <r>   -8.1216    1.0000 </r>
       <r>   -7.7198    1.0000 </r>
       <r>   -7.7094    1.0000 </r>
       <r>   -6.9291    1.0000 </r>
       <r>   -6.9184    1.0000 </r>
       <r>   -6.5536    1.0000 </r>
       <r>   -6.0220    1.0000 </r>
       <r>   -5.8819    1.0000 </r>
       <r>   -3.5337    1.0000 </r>
       <r>   -3.5204    1.0000 </r>
       <r>   -2.0123    0.0000 </r>
       <r>   -1.9960    0.0000 </r>
       <r>    0.5922    0.0000 </r>
       <r>    0.8672    0.0000 </r>
       <r>    1.3854    0.0000 </r>
       <r>    1.4673    0.0000 </r>
       <r>    1.4858    0.0000 </r>
       <r>    1.7095    0.0000 </r>
       <r>    2.6300    0.0000 </r>
       <r>    2.7569    0.0000 </r>
      </set>
      <set comment="kpoint 4">
       <r>  -22.2025    1.0000 </r>
       <r>  -20.3494    1.0000 </r>
       <r>  -19.9934    1.0000 </r>
       <r>  -19.9755    1.0000 </r>
       <r>  -19.2715    1.0000 </r>
       <r>  -19.2533    1.0000 </r>
       <r>  -18.9060    1.0000 </r>
       <r>  -16.0046    1.0000 </r>
       <r>  -15.9867    1.0000 </r>
       <r>  -14.9237    1.0000 </r>
       <r>  -14.9022    1.0000 </r>
       <r>  -13.6000    1.0000 </r>
       <r>  -12.9809    1.0000 </r>
       <r>  -12.9655    1.0000 </r>
       <r>  -12.9588    1.0000 </r>
       <r>  -12.9461    1.0000 </r>
       <r>  -11.7449    1.0000 </r>
       <r>  -11.7227    1.0000 </r>
       <r>  -11.1197    1.0000 </r>
       <r>  -10.2960    1.0000 </r>
       <r>   -8.8783    1.0000 </r>
       <r>   -8.8575    1.0000 </r>
       <r>   -8.8213    1.0000 </r>
       <r>   -8.5249    1.0000 </r>
       <r>   -8.4974    1.0000 </r>
       <r>   -8.1274    1.0000 </r>
       <r>   -8.1268    1.0000 </r>
       <r>   -7.7218    1.0000 </r>
       <r>   -7.7063    1.0000 </r>
       <r>   -6.9309    1.0000 </r>
       <r>   -6.9153    1.0000 </r>
       <r>   -6.5557    1.0000 </r>
       <r>   -6.0141    1.0000 </r>
       <r>   -5.8899    1.0000 </r>
       <r>   -3.5362    1.0000 </r>
       <r>   -3.5174    1.0000 </r>
       <r>   -2.0154    0.0000 </r>
       <r>   -1.9933    0.0000 </r>
       <r>    0.5922    0.0000 </r>
       <r>    0.8721    0.0000 </r>
       <r>    1.3854    0.0000 </r>
       <r>    1.4624    0.0000 </r>
       <r>    1.4875    0.0000 </r>
       <r>    1.7095    0.0000 </r>
       <r>    2.6300    0.0000 </r>
       <r>    2.7513    0.0000 </r>
      </set>
      <set comment="kpoint 5">
       <r>  -22.0419    1.0000 </r>
       <r>  -20.9266    1.0000 </r>
       <r>  -20.2039    1.0000 </r>
       <r>  -20.1823    1.0000 </r>
       <r>  -18.7667    1.0000 </r>
       <r>  -18.7443    1.0000 </r>
       <r>  -18.0633    1.0000 </r>
       <r>  -16.7561    1.0000 </r>
       <r>  -16.7332    1.0000 </r>
       <r>  -14.7472    1.0000 </r>
       <r>  -14.6321    1.0000 </r>
       <r>  -14.6195    1.0000 </r>
       <r>  -13.5097    1.0000 </r>
       <r>  -13.4952    1.0000 </r>
       <r>  -12.1898    1.0000 </r>
       <r>  -12.1746    1.0000 </r>
       <r>  -11.1154    1.0000 </r>
       <r>  -11.0959    1.0000 </r>
       <r>  -10.1049    1.0000 </r>
       <r>   -9.8494    1.0000 </r>
       <r>   -9.5005    1.0000 </r>
       <r>   -9.4817    1.0000 </r>
       <r>   -9.0487    1.0000 </r>
       <r>   -8.7929    1.0000 </r>
       <r>   -8.7622    1.0000 </r>
       <r>   -8.7405    1.0000 </r>
       <r>   -7.9529    1.0000 </r>
       <r>   -7.9338    1.0000 </r>
       <r>   -7.6853    1.0000 </r>
       <r>   -6.6027    1.0000 </r>
       <r>   -6.3851    1.0000 </r>
       <r>   -6.3678    1.0000 </r>
       <r>   -6.2364    1.0000 </r>
       <r>   -5.7718    1.0000 </r>
       <r>   -4.3044    1.0000 </r>
       <r>   -4.2921    1.0000 </r>
       <r>   -1.2882    0.0000 </r>
       <r>   -1.2794    0.0000 </r>
       <r>   -0.2242    0.0000 </r>
       <r>    0.7756    0.0000 </r>
       <r>    0.7951    0.0000 </r>
       <r>    0.8102    0.0000 </r>
       <r>    1.6062    0.0000 </r>
       <r>    1.9329    0.0000 </r>
       <r>    2.3340    0.0000 </r>
       <r>    2.8513    0.0000 </r>
      </set>
      <set comment="kpoint 6">
       <r>  -22.0420    1.0000 </r>
       <r>  -20.9270    1.0000 </r>
       <r>  -20.1993    1.0000 </r>
       <r>  -20.1860    1.0000 </r>
       <r>  -18.7619    1.0000 </r>
       <r>  -18.7490    1.0000 </r>
       <r>  -18.0627    1.0000 </r>
       <r>  -16.7510    1.0000 </r>
       <r>  -16.7401    1.0000 </r>
       <r>  -14.7603    1.0000 </r>
       <r>  -14.6299    1.0000 </r>
       <r>  -14.6146    1.0000 </r>
       <r>  -13.5055    1.0000 </r>
       <r>  -13.4888    1.0000 </r>
       <r>  -12.1927    1.0000 </r>
       <r>  -12.1775    1.0000 </r>
       <r>  -11.1032    1.0000 </r>
       <r>  -11.0818    1.0000 </r>
       <r>  -10.1047    1.0000 </r>
       <r>   -9.8684    1.0000 </r>
       <r>   -9.5058    1.0000 </r>
       <r>   -9.4909    1.0000 </r>
       <r>   -9.0305    1.0000 </r>
       <r>   -8.7911    1.0000 </r>
       <r>   -8.7782    1.0000 </r>
       <r>   -8.7570    1.0000 </r>
       <r>   -7.9511    1.0000 </r>
       <r>   -7.9406    1.0000 </r>
       <r>   -7.6609    1.0000 </r>
       <r>   -6.6365    1.0000 </r>
       <r>   -6.3839    1.0000 </r>
       <r>   -6.3732    1.0000 </r>
       <r>   -6.2012    1.0000 </r>
       <r>   -5.7599    1.0000 </r>
       <r>   -4.3055    1.0000 </r>
       <r>   -4.2933    1.0000 </r>
       <r>   -1.2909    0.0000 </r>
       <r>   -1.2733    0.0000 </r>
       <r>   -0.2474    0.0000 </r>
       <r>    0.7807    0.0000 </r>
       <r>    0.7995    0.0000 </r>
       <r>    0.8102    0.0000 </r>
       <r>    1.6062    0.0000 </r>
       <r>    1.9329    0.0000 </r>
       <r>    2.3341    0.0000 </r>
       <r>    2.8513    0.0000 </r>
      </set>
      <set comment="kpoint 7">
       <r>  -22.0420    1.0000 </r>
       <r>  -20.9269    1.0000 </r>
       <r>  -20.2018    1.0000 </r>
       <r>  -20.1838    1.0000 </r>
       <r>  -18.7645    1.0000 </r>
       <r>  -18.7463    1.0000 </r>
       <r>  -18.0629    1.0000 </r>
       <r>  -16.7543    1.0000 </r>
       <r>  -16.7364    1.0000 </r>
       <r>  -14.7566    1.0000 </r>
       <r>  -14.6331    1.0000 </r>
       <r>  -14.6135    1.0000 </r>
       <r>  -13.5082    1.0000 </r>
       <r>  -13.4887    1.0000 </r>
       <r>  -12.1946    1.0000 </r>
       <r>  -12.1742    1.0000 </r>
       <r>  -11.1077    1.0000 </r>
       <r>  -11.0844    1.0000 </r>
       <r>  -10.1047    1.0000 </r>
       <r>   -9.8634    1.0000 </r>
       <r>   -9.5080    1.0000 </r>
       <r>   -9.4848    1.0000 </r>
       <r>   -9.0352    1.0000 </r>
       <r>   -8.7915    1.0000 </r>
       <r>   -8.7762    1.0000 </r>
       <r>   -8.7506    1.0000 </r>
       <r>   -7.9530    1.0000 </r>
       <r>   -7.9375    1.0000 </r>
       <r>   -7.6673    1.0000 </r>
       <r>   -6.6281    1.0000 </r>
       <r>   -6.3858    1.0000 </r>
       <r>   -6.3701    1.0000 </r>
       <r>   -6.2101    1.0000 </r>
       <r>   -5.7631    1.0000 </r>
       <r>   -4.3079    1.0000 </r>
       <r>   -4.2903    1.0000 </r>
       <r>   -1.2944    0.0000 </r>
       <r>   -1.2707    0.0000 </r>
       <r>   -0.2413    0.0000 </r>
       <r>    0.7762    0.0000 </r>
       <r>    0.8014    0.0000 </r>
       <r>    0.8102    0.0000 </r>
       <r>    1.6062    0.0000 </r>
       <r>    1.9330    0.0000 </r>
       <r>    2.3341    0.0000 </r>
       <r>    2.8513    0.0000 </r>
      </set>
      <set comment="kpoint 8">
       <r>  -21.7751    1.0000 </r>
       <r>  -21.4027    1.0000 </r>
       <r>  -20.3084    1.0000 </r>
       <r>  -20.2869    1.0000 </r>
       <r>  -18.1698    1.0000 </r>
       <r>  -18.1470    1.0000 </r>
       <r>  -17.4928    1.0000 </r>
       <r>  -17.4695    1.0000 </r>
       <r>  -17.2314    1.0000 </r>
       <r>  -15.7358    1.0000 </r>
       <r>  -14.3309    1.0000 </r>
       <r>  -14.3185    1.0000 </r>
       <r>  -13.9604    1.0000 </r>
       <r>  -13.9468    1.0000 </r>
       <r>  -11.2651    1.0000 </r>
       <r>  -11.2477    1.0000 </r>
       <r>  -10.6206    1.0000 </r>
       <r>  -10.5987    1.0000 </r>
       <r>  -10.3332    1.0000 </r>
       <r>  -10.3155    1.0000 </r>
       <r>   -9.7882    1.0000 </r>
       <r>   -9.3490    1.0000 </r>
       <r>   -9.1564    1.0000 </r>
       <r>   -9.0856    1.0000 </r>
       <r>   -9.0661    1.0000 </r>
       <r>   -8.6315    1.0000 </r>
       <r>   -8.0694    1.0000 </r>
       <r>   -8.0502    1.0000 </r>
       <r>   -7.5217    1.0000 </r>
       <r>   -7.1844    1.0000 </r>
       <r>   -6.6814    1.0000 </r>
       <r>   -5.7545    1.0000 </r>
       <r>   -5.7382    1.0000 </r>
       <r>   -5.2089    1.0000 </r>
       <r>   -5.0524    1.0000 </r>
       <r>   -5.0388    1.0000 </r>
       <r>   -0.9540    0.0000 </r>
       <r>   -0.5924    0.0000 </r>
       <r>   -0.5797    0.0000 </r>
       <r>    0.0921    0.0000 </r>
       <r>    0.1085    0.0000 </r>
       <r>    1.1734    0.0000 </r>
       <r>    1.6816    0.0000 </r>
       <r>    1.9735    0.0000 </r>
       <r>    2.3054    0.0000 </r>
       <r>    2.4864    0.0000 </r>
      </set>
      <set comment="kpoint 9">
       <r>  -21.7753    1.0000 </r>
       <r>  -21.4029    1.0000 </r>
       <r>  -20.3039    1.0000 </r>
       <r>  -20.2905    1.0000 </r>
       <r>  -18.1647    1.0000 </r>
       <r>  -18.1527    1.0000 </r>
       <r>  -17.4878    1.0000 </r>
       <r>  -17.4759    1.0000 </r>
       <r>  -17.2257    1.0000 </r>
       <r>  -15.7531    1.0000 </r>
       <r>  -14.3288    1.0000 </r>
       <r>  -14.3128    1.0000 </r>
       <r>  -13.9568    1.0000 </r>
       <r>  -13.9406    1.0000 </r>
       <r>  -11.2680    1.0000 </r>
       <r>  -11.2534    1.0000 </r>
       <r>  -10.5996    1.0000 </r>
       <r>  -10.5781    1.0000 </r>
       <r>  -10.3372    1.0000 </r>
       <r>  -10.3222    1.0000 </r>
       <r>   -9.7876    1.0000 </r>
       <r>   -9.3479    1.0000 </r>
       <r>   -9.1379    1.0000 </r>
       <r>   -9.1086    1.0000 </r>
       <r>   -9.0909    1.0000 </r>
       <r>   -8.6557    1.0000 </r>
       <r>   -8.0676    1.0000 </r>
       <r>   -8.0570    1.0000 </r>
       <r>   -7.5504    1.0000 </r>
       <r>   -7.1571    1.0000 </r>
       <r>   -6.6503    1.0000 </r>
       <r>   -5.7535    1.0000 </r>
       <r>   -5.7429    1.0000 </r>
       <r>   -5.1918    1.0000 </r>
       <r>   -5.0531    1.0000 </r>
       <r>   -5.0411    1.0000 </r>
       <r>   -0.9828    0.0000 </r>
       <r>   -0.5926    0.0000 </r>
       <r>   -0.5744    0.0000 </r>
       <r>    0.0946    0.0000 </r>
       <r>    0.1134    0.0000 </r>
       <r>    1.1735    0.0000 </r>
       <r>    1.6817    0.0000 </r>
       <r>    1.9736    0.0000 </r>
       <r>    2.3053    0.0000 </r>
       <r>    2.4866    0.0000 </r>
      </set>
      <set comment="kpoint 10">
       <r>  -21.7753    1.0000 </r>
       <r>  -21.4028    1.0000 </r>
       <r>  -20.3063    1.0000 </r>
       <r>  -20.2884    1.0000 </r>
       <r>  -18.1675    1.0000 </r>
       <r>  -18.1495    1.0000 </r>
       <r>  -17.4907    1.0000 </r>
       <r>  -17.4724    1.0000 </r>
       <r>  -17.2277    1.0000 </r>
       <r>  -15.7484    1.0000 </r>
       <r>  -14.3315    1.0000 </r>
       <r>  -14.3121    1.0000 </r>
       <r>  -13.9594    1.0000 </r>
       <r>  -13.9404    1.0000 </r>
       <r>  -11.2703    1.0000 </r>
       <r>  -11.2490    1.0000 </r>
       <r>  -10.6056    1.0000 </r>
       <r>  -10.5833    1.0000 </r>
       <r>  -10.3398    1.0000 </r>
       <r>  -10.3168    1.0000 </r>
       <r>   -9.7878    1.0000 </r>
       <r>   -9.3482    1.0000 </r>
       <r>   -9.1439    1.0000 </r>
       <r>   -9.1020    1.0000 </r>
       <r>   -9.0836    1.0000 </r>
       <r>   -8.6494    1.0000 </r>
       <r>   -8.0694    1.0000 </r>
       <r>   -8.0539    1.0000 </r>
       <r>   -7.5433    1.0000 </r>
       <r>   -7.1635    1.0000 </r>
       <r>   -6.6587    1.0000 </r>
       <r>   -5.7556    1.0000 </r>
       <r>   -5.7396    1.0000 </r>
       <r>   -5.1960    1.0000 </r>
       <r>   -5.0554    1.0000 </r>
       <r>   -5.0386    1.0000 </r>
       <r>   -0.9747    0.0000 </r>
       <r>   -0.5967    0.0000 </r>
       <r>   -0.5721    0.0000 </r>
       <r>    0.0905    0.0000 </r>
       <r>    0.1155    0.0000 </r>
       <r>    1.1735    0.0000 </r>
       <r>    1.6817    0.0000 </r>
       <r>    1.9736    0.0000 </r>
       <r>    2.3054    0.0000 </r>
       <r>    2.4866    0.0000 </r>
      </set>
      <set comment="kpoint 11">
       <r>  -22.0954    1.0000 </r>
       <r>  -20.6191    1.0000 </r>
       <r>  -20.6033    1.0000 </r>
       <r>  -19.5277    1.0000 </r>
       <r>  -19.5115    1.0000 </r>
       <r>  -18.4633    1.0000 </r>
       <r>  -18.4466    1.0000 </r>
       <r>  -16.7790    1.0000 </r>
       <r>  -16.1600    1.0000 </r>
       <r>  -15.2441    1.0000 </r>
       <r>  -14.2553    1.0000 </r>
       <r>  -14.1665    1.0000 </r>
       <r>  -14.1460    1.0000 </r>
       <r>  -12.6073    1.0000 </r>
       <r>  -12.3211    1.0000 </r>
       <r>  -12.3013    1.0000 </r>
       <r>  -12.2652    1.0000 </r>
       <r>  -10.4985    1.0000 </r>
       <r>  -10.4724    1.0000 </r>
       <r>  -10.1684    1.0000 </r>
       <r>   -9.1827    1.0000 </r>
       <r>   -9.1684    1.0000 </r>
       <r>   -9.1368    1.0000 </r>
       <r>   -9.1096    1.0000 </r>
       <r>   -8.4327    1.0000 </r>
       <r>   -8.4198    1.0000 </r>
       <r>   -8.0903    1.0000 </r>
       <r>   -8.0611    1.0000 </r>
       <r>   -7.1969    1.0000 </r>
       <r>   -7.1836    1.0000 </r>
       <r>   -6.4038    1.0000 </r>
       <r>   -6.1356    1.0000 </r>
       <r>   -6.1133    1.0000 </r>
       <r>   -6.0973    1.0000 </r>
       <r>   -4.2595    1.0000 </r>
       <r>   -3.8966    1.0000 </r>
       <r>   -1.7141    0.0000 </r>
       <r>   -1.2626    0.0000 </r>
       <r>    0.2631    0.0000 </r>
       <r>    0.2871    0.0000 </r>
       <r>    0.7375    0.0000 </r>
       <r>    1.5326    0.0000 </r>
       <r>    1.8585    0.0000 </r>
       <r>    2.0014    0.0000 </r>
       <r>    2.0184    0.0000 </r>
       <r>    2.7775    0.0000 </r>
      </set>
      <set comment="kpoint 12">
       <r>  -22.0955    1.0000 </r>
       <r>  -20.6162    1.0000 </r>
       <r>  -20.6063    1.0000 </r>
       <r>  -19.5306    1.0000 </r>
       <r>  -19.5078    1.0000 </r>
       <r>  -18.4603    1.0000 </r>
       <r>  -18.4498    1.0000 </r>
       <r>  -16.7780    1.0000 </r>
       <r>  -16.1685    1.0000 </r>
       <r>  -15.2269    1.0000 </r>
       <r>  -14.2662    1.0000 </r>
       <r>  -14.1722    1.0000 </r>
       <r>  -14.1502    1.0000 </r>
       <r>  -12.5966    1.0000 </r>
       <r>  -12.3074    1.0000 </r>
       <r>  -12.2930    1.0000 </r>
       <r>  -12.2759    1.0000 </r>
       <r>  -10.5044    1.0000 </r>
       <r>  -10.4758    1.0000 </r>
       <r>  -10.1683    1.0000 </r>
       <r>   -9.1936    1.0000 </r>
       <r>   -9.1843    1.0000 </r>
       <r>   -9.1275    1.0000 </r>
       <r>   -9.1060    1.0000 </r>
       <r>   -8.4299    1.0000 </r>
       <r>   -8.4217    1.0000 </r>
       <r>   -8.0830    1.0000 </r>
       <r>   -8.0562    1.0000 </r>
       <r>   -7.2035    1.0000 </r>
       <r>   -7.1834    1.0000 </r>
       <r>   -6.4290    1.0000 </r>
       <r>   -6.1097    1.0000 </r>
       <r>   -6.1068    1.0000 </r>
       <r>   -6.0959    1.0000 </r>
       <r>   -4.2516    1.0000 </r>
       <r>   -3.9098    1.0000 </r>
       <r>   -1.6963    0.0000 </r>
       <r>   -1.2748    0.0000 </r>
       <r>    0.2575    0.0000 </r>
       <r>    0.2754    0.0000 </r>
       <r>    0.7376    0.0000 </r>
       <r>    1.5326    0.0000 </r>
       <r>    1.8585    0.0000 </r>
       <r>    2.0072    0.0000 </r>
       <r>    2.0325    0.0000 </r>
       <r>    2.7776    0.0000 </r>
      </set>
      <set comment="kpoint 13">
       <r>  -22.0954    1.0000 </r>
       <r>  -20.6176    1.0000 </r>
       <r>  -20.6047    1.0000 </r>
       <r>  -19.5286    1.0000 </r>
       <r>  -19.5109    1.0000 </r>
       <r>  -18.4618    1.0000 </r>
       <r>  -18.4479    1.0000 </r>
       <r>  -16.7795    1.0000 </r>
       <r>  -16.1568    1.0000 </r>
       <r>  -15.2504    1.0000 </r>
       <r>  -14.2500    1.0000 </r>
       <r>  -14.1666    1.0000 </r>
       <r>  -14.1436    1.0000 </r>
       <r>  -12.6111    1.0000 </r>
       <r>  -12.3224    1.0000 </r>
       <r>  -12.3071    1.0000 </r>
       <r>  -12.2623    1.0000 </r>
       <r>  -10.4980    1.0000 </r>
       <r>  -10.4696    1.0000 </r>
       <r>  -10.1685    1.0000 </r>
       <r>   -9.1808    1.0000 </r>
       <r>   -9.1631    1.0000 </r>
       <r>   -9.1371    1.0000 </r>
       <r>   -9.1113    1.0000 </r>
       <r>   -8.4316    1.0000 </r>
       <r>   -8.4213    1.0000 </r>
       <r>   -8.0922    1.0000 </r>
       <r>   -8.0635    1.0000 </r>
       <r>   -7.1972    1.0000 </r>
       <r>   -7.1810    1.0000 </r>
       <r>   -6.3934    1.0000 </r>
       <r>   -6.1462    1.0000 </r>
       <r>   -6.1126    1.0000 </r>
       <r>   -6.1008    1.0000 </r>
       <r>   -4.2625    1.0000 </r>
       <r>   -3.8917    1.0000 </r>
       <r>   -1.7207    0.0000 </r>
       <r>   -1.2581    0.0000 </r>
       <r>    0.2686    0.0000 </r>
       <r>    0.2879    0.0000 </r>
       <r>    0.7375    0.0000 </r>
       <r>    1.5326    0.0000 </r>
       <r>    1.8585    0.0000 </r>
       <r>    1.9955    0.0000 </r>
       <r>    2.0172    0.0000 </r>
       <r>    2.7775    0.0000 </r>
      </set>
      <set comment="kpoint 14">
       <r>  -21.8817    1.0000 </r>
       <r>  -21.1380    1.0000 </r>
       <r>  -20.7691    1.0000 </r>
       <r>  -19.6748    1.0000 </r>
       <r>  -18.9581    1.0000 </r>
       <r>  -17.9168    1.0000 </r>
       <r>  -17.5992    1.0000 </r>
       <r>  -17.5682    1.0000 </r>
       <r>  -16.6702    1.0000 </r>
       <r>  -15.2558    1.0000 </r>
       <r>  -15.2423    1.0000 </r>
       <r>  -14.6401    1.0000 </r>
       <r>  -13.7283    1.0000 </r>
       <r>  -12.8209    1.0000 </r>
       <r>  -11.8979    1.0000 </r>
       <r>  -11.6902    1.0000 </r>
       <r>  -11.3868    1.0000 </r>
       <r>  -10.0409    1.0000 </r>
       <r>   -9.9287    1.0000 </r>
       <r>   -9.9145    1.0000 </r>
       <r>   -9.7052    1.0000 </r>
       <r>   -9.6209    1.0000 </r>
       <r>   -9.2950    1.0000 </r>
       <r>   -9.2479    1.0000 </r>
       <r>   -9.0385    1.0000 </r>
       <r>   -8.6057    1.0000 </r>
       <r>   -8.2443    1.0000 </r>
       <r>   -7.5945    1.0000 </r>
       <r>   -7.3525    1.0000 </r>
       <r>   -7.1298    1.0000 </r>
       <r>   -6.5684    1.0000 </r>
       <r>   -6.5592    1.0000 </r>
       <r>   -5.5778    1.0000 </r>
       <r>   -5.3941    1.0000 </r>
       <r>   -5.0736    1.0000 </r>
       <r>   -4.4314    1.0000 </r>
       <r>   -1.2986    0.0000 </r>
       <r>   -0.6711    0.0000 </r>
       <r>   -0.4254    0.0000 </r>
       <r>   -0.3044    0.0000 </r>
       <r>    1.0282    0.0000 </r>
       <r>    1.2268    0.0000 </r>
       <r>    1.8267    0.0000 </r>
       <r>    2.0446    0.0000 </r>
       <r>    2.1564    0.0000 </r>
       <r>    2.3965    0.0000 </r>
      </set>
      <set comment="kpoint 15">
       <r>  -21.8819    1.0000 </r>
       <r>  -21.1382    1.0000 </r>
       <r>  -20.7688    1.0000 </r>
       <r>  -19.6744    1.0000 </r>
       <r>  -18.9579    1.0000 </r>
       <r>  -17.9171    1.0000 </r>
       <r>  -17.5973    1.0000 </r>
       <r>  -17.5682    1.0000 </r>
       <r>  -16.6747    1.0000 </r>
       <r>  -15.2639    1.0000 </r>
       <r>  -15.2357    1.0000 </r>
       <r>  -14.6372    1.0000 </r>
       <r>  -13.7348    1.0000 </r>
       <r>  -12.8139    1.0000 </r>
       <r>  -11.8907    1.0000 </r>
       <r>  -11.6721    1.0000 </r>
       <r>  -11.3972    1.0000 </r>
       <r>  -10.0491    1.0000 </r>
       <r>   -9.9147    1.0000 </r>
       <r>   -9.9141    1.0000 </r>
       <r>   -9.7085    1.0000 </r>
       <r>   -9.6411    1.0000 </r>
       <r>   -9.2816    1.0000 </r>
       <r>   -9.2638    1.0000 </r>
       <r>   -9.0373    1.0000 </r>
       <r>   -8.6072    1.0000 </r>
       <r>   -8.2619    1.0000 </r>
       <r>   -7.5707    1.0000 </r>
       <r>   -7.3565    1.0000 </r>
       <r>   -7.1612    1.0000 </r>
       <r>   -6.5701    1.0000 </r>
       <r>   -6.5262    1.0000 </r>
       <r>   -5.5792    1.0000 </r>
       <r>   -5.3793    1.0000 </r>
       <r>   -5.0692    1.0000 </r>
       <r>   -4.4420    1.0000 </r>
       <r>   -1.2826    0.0000 </r>
       <r>   -0.6973    0.0000 </r>
       <r>   -0.4338    0.0000 </r>
       <r>   -0.3021    0.0000 </r>
       <r>    1.0283    0.0000 </r>
       <r>    1.2313    0.0000 </r>
       <r>    1.8267    0.0000 </r>
       <r>    2.0446    0.0000 </r>
       <r>    2.1564    0.0000 </r>
       <r>    2.4106    0.0000 </r>
      </set>
      <set comment="kpoint 16">
       <r>  -21.8818    1.0000 </r>
       <r>  -21.1382    1.0000 </r>
       <r>  -20.7687    1.0000 </r>
       <r>  -19.6747    1.0000 </r>
       <r>  -18.9585    1.0000 </r>
       <r>  -17.9174    1.0000 </r>
       <r>  -17.5950    1.0000 </r>
       <r>  -17.5713    1.0000 </r>
       <r>  -16.6683    1.0000 </r>
       <r>  -15.2649    1.0000 </r>
       <r>  -15.2495    1.0000 </r>
       <r>  -14.6272    1.0000 </r>
       <r>  -13.7187    1.0000 </r>
       <r>  -12.8288    1.0000 </r>
       <r>  -11.9082    1.0000 </r>
       <r>  -11.6861    1.0000 </r>
       <r>  -11.3818    1.0000 </r>
       <r>  -10.0312    1.0000 </r>
       <r>   -9.9144    1.0000 </r>
       <r>   -9.9071    1.0000 </r>
       <r>   -9.7209    1.0000 </r>
       <r>   -9.6262    1.0000 </r>
       <r>   -9.2867    1.0000 </r>
       <r>   -9.2631    1.0000 </r>
       <r>   -9.0372    1.0000 </r>
       <r>   -8.6076    1.0000 </r>
       <r>   -8.2701    1.0000 </r>
       <r>   -7.5713    1.0000 </r>
       <r>   -7.3541    1.0000 </r>
       <r>   -7.1358    1.0000 </r>
       <r>   -6.5644    1.0000 </r>
       <r>   -6.5528    1.0000 </r>
       <r>   -5.5888    1.0000 </r>
       <r>   -5.3837    1.0000 </r>
       <r>   -5.0784    1.0000 </r>
       <r>   -4.4248    1.0000 </r>
       <r>   -1.3087    0.0000 </r>
       <r>   -0.6885    0.0000 </r>
       <r>   -0.4176    0.0000 </r>
       <r>   -0.2831    0.0000 </r>
       <r>    1.0282    0.0000 </r>
       <r>    1.2155    0.0000 </r>
       <r>    1.8267    0.0000 </r>
       <r>    2.0447    0.0000 </r>
       <r>    2.1564    0.0000 </r>
       <r>    2.4024    0.0000 </r>
      </set>
      <set comment="kpoint 17">
       <r>  -21.8819    1.0000 </r>
       <r>  -21.1380    1.0000 </r>
       <r>  -20.7689    1.0000 </r>
       <r>  -19.6745    1.0000 </r>
       <r>  -18.9578    1.0000 </r>
       <r>  -17.9168    1.0000 </r>
       <r>  -17.5969    1.0000 </r>
       <r>  -17.5692    1.0000 </r>
       <r>  -16.6749    1.0000 </r>
       <r>  -15.2594    1.0000 </r>
       <r>  -15.2361    1.0000 </r>
       <r>  -14.6405    1.0000 </r>
       <r>  -13.7365    1.0000 </r>
       <r>  -12.8123    1.0000 </r>
       <r>  -11.8891    1.0000 </r>
       <r>  -11.6748    1.0000 </r>
       <r>  -11.3973    1.0000 </r>
       <r>  -10.0513    1.0000 </r>
       <r>   -9.9206    1.0000 </r>
       <r>   -9.9141    1.0000 </r>
       <r>   -9.7041    1.0000 </r>
       <r>   -9.6384    1.0000 </r>
       <r>   -9.2854    1.0000 </r>
       <r>   -9.2580    1.0000 </r>
       <r>   -9.0377    1.0000 </r>
       <r>   -8.6067    1.0000 </r>
       <r>   -8.2542    1.0000 </r>
       <r>   -7.5784    1.0000 </r>
       <r>   -7.3558    1.0000 </r>
       <r>   -7.1571    1.0000 </r>
       <r>   -6.5709    1.0000 </r>
       <r>   -6.5305    1.0000 </r>
       <r>   -5.5764    1.0000 </r>
       <r>   -5.3831    1.0000 </r>
       <r>   -5.0685    1.0000 </r>
       <r>   -4.4427    1.0000 </r>
       <r>   -1.2815    0.0000 </r>
       <r>   -0.6904    0.0000 </r>
       <r>   -0.4356    0.0000 </r>
       <r>   -0.3072    0.0000 </r>
       <r>    1.0283    0.0000 </r>
       <r>    1.2337    0.0000 </r>
       <r>    1.8267    0.0000 </r>
       <r>    2.0446    0.0000 </r>
       <r>    2.1564    0.0000 </r>
       <r>    2.4079    0.0000 </r>
      </set>
      <set comment="kpoint 18">
       <r>  -21.8818    1.0000 </r>
       <r>  -21.1383    1.0000 </r>
       <r>  -20.7685    1.0000 </r>
       <r>  -19.6745    1.0000 </r>
       <r>  -18.9584    1.0000 </r>
       <r>  -17.9177    1.0000 </r>
       <r>  -17.5966    1.0000 </r>
       <r>  -17.5688    1.0000 </r>
       <r>  -16.6700    1.0000 </r>
       <r>  -15.2665    1.0000 </r>
       <r>  -15.2468    1.0000 </r>
       <r>  -14.6275    1.0000 </r>
       <r>  -13.7216    1.0000 </r>
       <r>  -12.8259    1.0000 </r>
       <r>  -11.9050    1.0000 </r>
       <r>  -11.6805    1.0000 </r>
       <r>  -11.3854    1.0000 </r>
       <r>  -10.0347    1.0000 </r>
       <r>   -9.9143    1.0000 </r>
       <r>   -9.9040    1.0000 </r>
       <r>   -9.7201    1.0000 </r>
       <r>   -9.6328    1.0000 </r>
       <r>   -9.2827    1.0000 </r>
       <r>   -9.2677    1.0000 </r>
       <r>   -9.0369    1.0000 </r>
       <r>   -8.6078    1.0000 </r>
       <r>   -8.2735    1.0000 </r>
       <r>   -7.5657    1.0000 </r>
       <r>   -7.3552    1.0000 </r>
       <r>   -7.1458    1.0000 </r>
       <r>   -6.5653    1.0000 </r>
       <r>   -6.5422    1.0000 </r>
       <r>   -5.5885    1.0000 </r>
       <r>   -5.3798    1.0000 </r>
       <r>   -5.0762    1.0000 </r>
       <r>   -4.4289    1.0000 </r>
       <r>   -1.3025    0.0000 </r>
       <r>   -0.6960    0.0000 </r>
       <r>   -0.4212    0.0000 </r>
       <r>   -0.2837    0.0000 </r>
       <r>    1.0282    0.0000 </r>
       <r>    1.2180    0.0000 </r>
       <r>    1.8267    0.0000 </r>
       <r>    2.0448    0.0000 </r>
       <r>    2.1564    0.0000 </r>
       <r>    2.5526    0.0000 </r>
      </set>
      <set comment="kpoint 19">
       <r>  -21.8817    1.0000 </r>
       <r>  -21.1380    1.0000 </r>
       <r>  -20.7690    1.0000 </r>
       <r>  -19.6749    1.0000 </r>
       <r>  -18.9583    1.0000 </r>
       <r>  -17.9168    1.0000 </r>
       <r>  -17.5980    1.0000 </r>
       <r>  -17.5697    1.0000 </r>
       <r>  -16.6683    1.0000 </r>
       <r>  -15.2623    1.0000 </r>
       <r>  -15.2408    1.0000 </r>
       <r>  -14.6365    1.0000 </r>
       <r>  -13.7236    1.0000 </r>
       <r>  -12.8252    1.0000 </r>
       <r>  -11.9030    1.0000 </r>
       <r>  -11.6930    1.0000 </r>
       <r>  -11.3828    1.0000 </r>
       <r>  -10.0356    1.0000 </r>
       <r>   -9.9256    1.0000 </r>
       <r>   -9.9145    1.0000 </r>
       <r>   -9.7093    1.0000 </r>
       <r>   -9.6177    1.0000 </r>
       <r>   -9.2946    1.0000 </r>
       <r>   -9.2499    1.0000 </r>
       <r>   -9.0384    1.0000 </r>
       <r>   -8.6060    1.0000 </r>
       <r>   -8.2485    1.0000 </r>
       <r>   -7.5925    1.0000 </r>
       <r>   -7.3521    1.0000 </r>
       <r>   -7.1238    1.0000 </r>
       <r>   -6.5667    1.0000 </r>
       <r>   -6.5655    1.0000 </r>
       <r>   -5.5810    1.0000 </r>
       <r>   -5.3943    1.0000 </r>
       <r>   -5.0764    1.0000 </r>
       <r>   -4.4266    1.0000 </r>
       <r>   -1.3059    0.0000 </r>
       <r>   -0.6705    0.0000 </r>
       <r>   -0.4197    0.0000 </r>
       <r>   -0.2990    0.0000 </r>
       <r>    1.0282    0.0000 </r>
       <r>    1.2220    0.0000 </r>
       <r>    1.8267    0.0000 </r>
       <r>    2.0446    0.0000 </r>
       <r>    2.1564    0.0000 </r>
       <r>    2.3950    0.0000 </r>
      </set>
      <set comment="kpoint 20">
       <r>  -21.5671    1.0000 </r>
       <r>  -21.5571    1.0000 </r>
       <r>  -20.8218    1.0000 </r>
       <r>  -19.7267    1.0000 </r>
       <r>  -18.3182    1.0000 </r>
       <r>  -18.2941    1.0000 </r>
       <r>  -17.3197    1.0000 </r>
       <r>  -17.2943    1.0000 </r>
       <r>  -16.9922    1.0000 </r>
       <r>  -15.9267    1.0000 </r>
       <r>  -15.0178    1.0000 </r>
       <r>  -15.0089    1.0000 </r>
       <r>  -13.2882    1.0000 </r>
       <r>  -13.2771    1.0000 </r>
       <r>  -11.3708    1.0000 </r>
       <r>  -10.9927    1.0000 </r>
       <r>  -10.9822    1.0000 </r>
       <r>  -10.5029    1.0000 </r>
       <r>  -10.4891    1.0000 </r>
       <r>   -9.8914    1.0000 </r>
       <r>   -9.6498    1.0000 </r>
       <r>   -9.5401    1.0000 </r>
       <r>   -9.5327    1.0000 </r>
       <r>   -9.3459    1.0000 </r>
       <r>   -8.6663    1.0000 </r>
       <r>   -8.4031    1.0000 </r>
       <r>   -8.1250    1.0000 </r>
       <r>   -8.0939    1.0000 </r>
       <r>   -7.4072    1.0000 </r>
       <r>   -7.0849    1.0000 </r>
       <r>   -7.0530    1.0000 </r>
       <r>   -5.8664    1.0000 </r>
       <r>   -5.8463    1.0000 </r>
       <r>   -5.0753    1.0000 </r>
       <r>   -5.0170    1.0000 </r>
       <r>   -4.9999    1.0000 </r>
       <r>   -1.0725    0.0000 </r>
       <r>   -0.8364    0.0000 </r>
       <r>   -0.8192    0.0000 </r>
       <r>    0.4021    0.0000 </r>
       <r>    0.4219    0.0000 </r>
       <r>    1.4635    0.0000 </r>
       <r>    1.4647    0.0000 </r>
       <r>    2.2668    0.0000 </r>
       <r>    2.2672    0.0000 </r>
       <r>    2.6032    0.0000 </r>
      </set>
      <set comment="kpoint 21">
       <r>  -21.5686    1.0000 </r>
       <r>  -21.5560    1.0000 </r>
       <r>  -20.8214    1.0000 </r>
       <r>  -19.7262    1.0000 </r>
       <r>  -18.3156    1.0000 </r>
       <r>  -18.2971    1.0000 </r>
       <r>  -17.3182    1.0000 </r>
       <r>  -17.2986    1.0000 </r>
       <r>  -16.9824    1.0000 </r>
       <r>  -15.9482    1.0000 </r>
       <r>  -15.0158    1.0000 </r>
       <r>  -14.9980    1.0000 </r>
       <r>  -13.2911    1.0000 </r>
       <r>  -13.2720    1.0000 </r>
       <r>  -11.3495    1.0000 </r>
       <r>  -10.9977    1.0000 </r>
       <r>  -10.9788    1.0000 </r>
       <r>  -10.5111    1.0000 </r>
       <r>  -10.4947    1.0000 </r>
       <r>   -9.9159    1.0000 </r>
       <r>   -9.6239    1.0000 </r>
       <r>   -9.5409    1.0000 </r>
       <r>   -9.5305    1.0000 </r>
       <r>   -9.3283    1.0000 </r>
       <r>   -8.6680    1.0000 </r>
       <r>   -8.4311    1.0000 </r>
       <r>   -8.1477    1.0000 </r>
       <r>   -8.1223    1.0000 </r>
       <r>   -7.4107    1.0000 </r>
       <r>   -7.0583    1.0000 </r>
       <r>   -7.0239    1.0000 </r>
       <r>   -5.8640    1.0000 </r>
       <r>   -5.8475    1.0000 </r>
       <r>   -5.0578    1.0000 </r>
       <r>   -5.0223    1.0000 </r>
       <r>   -5.0038    1.0000 </r>
       <r>   -1.1023    0.0000 </r>
       <r>   -0.8304    0.0000 </r>
       <r>   -0.8081    0.0000 </r>
       <r>    0.4005    0.0000 </r>
       <r>    0.4200    0.0000 </r>
       <r>    1.4634    0.0000 </r>
       <r>    1.4649    0.0000 </r>
       <r>    2.2669    0.0000 </r>
       <r>    2.2674    0.0000 </r>
       <r>    2.6033    0.0000 </r>
      </set>
      <set comment="kpoint 22">
       <r>  -21.5701    1.0000 </r>
       <r>  -21.5544    1.0000 </r>
       <r>  -20.8215    1.0000 </r>
       <r>  -19.7263    1.0000 </r>
       <r>  -18.3147    1.0000 </r>
       <r>  -18.2979    1.0000 </r>
       <r>  -17.3169    1.0000 </r>
       <r>  -17.2988    1.0000 </r>
       <r>  -16.9855    1.0000 </r>
       <r>  -15.9424    1.0000 </r>
       <r>  -15.0191    1.0000 </r>
       <r>  -14.9980    1.0000 </r>
       <r>  -13.2938    1.0000 </r>
       <r>  -13.2697    1.0000 </r>
       <r>  -11.3553    1.0000 </r>
       <r>  -11.0005    1.0000 </r>
       <r>  -10.9759    1.0000 </r>
       <r>  -10.5121    1.0000 </r>
       <r>  -10.4899    1.0000 </r>
       <r>   -9.9093    1.0000 </r>
       <r>   -9.6310    1.0000 </r>
       <r>   -9.5421    1.0000 </r>
       <r>   -9.5297    1.0000 </r>
       <r>   -9.3330    1.0000 </r>
       <r>   -8.6676    1.0000 </r>
       <r>   -8.4233    1.0000 </r>
       <r>   -8.1389    1.0000 </r>
       <r>   -8.1181    1.0000 </r>
       <r>   -7.4097    1.0000 </r>
       <r>   -7.0591    1.0000 </r>
       <r>   -7.0374    1.0000 </r>
       <r>   -5.8637    1.0000 </r>
       <r>   -5.8481    1.0000 </r>
       <r>   -5.0617    1.0000 </r>
       <r>   -5.0224    1.0000 </r>
       <r>   -5.0021    1.0000 </r>
       <r>   -1.0940    0.0000 </r>
       <r>   -0.8367    0.0000 </r>
       <r>   -0.8067    0.0000 </r>
       <r>    0.3985    0.0000 </r>
       <r>    0.4229    0.0000 </r>
       <r>    1.4632    0.0000 </r>
       <r>    1.4650    0.0000 </r>
       <r>    2.2668    0.0000 </r>
       <r>    2.2674    0.0000 </r>
       <r>    2.4812    0.0000 </r>
      </set>
      <set comment="kpoint 23">
       <r>  -21.6155    1.0000 </r>
       <r>  -21.2518    1.0000 </r>
       <r>  -21.2358    1.0000 </r>
       <r>  -19.0685    1.0000 </r>
       <r>  -19.0523    1.0000 </r>
       <r>  -18.3556    1.0000 </r>
       <r>  -17.0994    1.0000 </r>
       <r>  -17.0799    1.0000 </r>
       <r>  -16.7095    1.0000 </r>
       <r>  -15.6808    1.0000 </r>
       <r>  -15.6233    1.0000 </r>
       <r>  -15.6014    1.0000 </r>
       <r>  -12.9155    1.0000 </r>
       <r>  -12.2772    1.0000 </r>
       <r>  -12.2539    1.0000 </r>
       <r>  -11.3573    1.0000 </r>
       <r>  -10.5622    1.0000 </r>
       <r>  -10.5512    1.0000 </r>
       <r>  -10.5355    1.0000 </r>
       <r>   -9.8322    1.0000 </r>
       <r>   -9.8096    1.0000 </r>
       <r>   -9.5989    1.0000 </r>
       <r>   -9.1673    1.0000 </r>
       <r>   -9.1547    1.0000 </r>
       <r>   -8.8405    1.0000 </r>
       <r>   -8.8050    1.0000 </r>
       <r>   -7.8792    1.0000 </r>
       <r>   -7.7030    1.0000 </r>
       <r>   -7.6658    1.0000 </r>
       <r>   -7.0863    1.0000 </r>
       <r>   -6.6713    1.0000 </r>
       <r>   -6.6576    1.0000 </r>
       <r>   -5.8946    1.0000 </r>
       <r>   -5.0175    1.0000 </r>
       <r>   -4.9958    1.0000 </r>
       <r>   -4.6699    1.0000 </r>
       <r>   -1.2325    0.0000 </r>
       <r>   -1.0372    0.0000 </r>
       <r>   -1.0066    0.0000 </r>
       <r>    0.5309    0.0000 </r>
       <r>    1.3916    0.0000 </r>
       <r>    1.4710    0.0000 </r>
       <r>    1.4915    0.0000 </r>
       <r>    1.8992    0.0000 </r>
       <r>    1.9010    0.0000 </r>
       <r>    2.1939    0.0000 </r>
      </set>
      <set comment="kpoint 24">
       <r>  -21.6157    1.0000 </r>
       <r>  -21.2489    1.0000 </r>
       <r>  -21.2385    1.0000 </r>
       <r>  -19.0716    1.0000 </r>
       <r>  -19.0486    1.0000 </r>
       <r>  -18.3560    1.0000 </r>
       <r>  -17.0948    1.0000 </r>
       <r>  -17.0803    1.0000 </r>
       <r>  -16.7173    1.0000 </r>
       <r>  -15.6653    1.0000 </r>
       <r>  -15.6286    1.0000 </r>
       <r>  -15.6084    1.0000 </r>
       <r>  -12.9286    1.0000 </r>
       <r>  -12.2641    1.0000 </r>
       <r>  -12.2470    1.0000 </r>
       <r>  -11.3425    1.0000 </r>
       <r>  -10.5685    1.0000 </r>
       <r>  -10.5608    1.0000 </r>
       <r>  -10.5540    1.0000 </r>
       <r>   -9.8233    1.0000 </r>
       <r>   -9.8058    1.0000 </r>
       <r>   -9.5985    1.0000 </r>
       <r>   -9.1652    1.0000 </r>
       <r>   -9.1573    1.0000 </r>
       <r>   -8.8346    1.0000 </r>
       <r>   -8.8034    1.0000 </r>
       <r>   -7.9011    1.0000 </r>
       <r>   -7.7028    1.0000 </r>
       <r>   -7.6745    1.0000 </r>
       <r>   -7.0622    1.0000 </r>
       <r>   -6.6768    1.0000 </r>
       <r>   -6.6568    1.0000 </r>
       <r>   -5.8900    1.0000 </r>
       <r>   -5.0075    1.0000 </r>
       <r>   -4.9922    1.0000 </r>
       <r>   -4.6833    1.0000 </r>
       <r>   -1.2116    0.0000 </r>
       <r>   -1.0421    0.0000 </r>
       <r>   -1.0241    0.0000 </r>
       <r>    0.5197    0.0000 </r>
       <r>    1.3917    0.0000 </r>
       <r>    1.4765    0.0000 </r>
       <r>    1.5000    0.0000 </r>
       <r>    1.8994    0.0000 </r>
       <r>    1.9007    0.0000 </r>
       <r>    2.1939    0.0000 </r>
      </set>
      <set comment="kpoint 25">
       <r>  -21.6155    1.0000 </r>
       <r>  -21.2503    1.0000 </r>
       <r>  -21.2373    1.0000 </r>
       <r>  -19.0694    1.0000 </r>
       <r>  -19.0516    1.0000 </r>
       <r>  -18.3554    1.0000 </r>
       <r>  -17.0978    1.0000 </r>
       <r>  -17.0832    1.0000 </r>
       <r>  -16.7067    1.0000 </r>
       <r>  -15.6865    1.0000 </r>
       <r>  -15.6200    1.0000 </r>
       <r>  -15.6000    1.0000 </r>
       <r>  -12.9107    1.0000 </r>
       <r>  -12.2776    1.0000 </r>
       <r>  -12.2606    1.0000 </r>
       <r>  -11.3627    1.0000 </r>
       <r>  -10.5583    1.0000 </r>
       <r>  -10.5483    1.0000 </r>
       <r>  -10.5300    1.0000 </r>
       <r>   -9.8318    1.0000 </r>
       <r>   -9.8144    1.0000 </r>
       <r>   -9.5991    1.0000 </r>
       <r>   -9.1662    1.0000 </r>
       <r>   -9.1557    1.0000 </r>
       <r>   -8.8413    1.0000 </r>
       <r>   -8.8071    1.0000 </r>
       <r>   -7.8709    1.0000 </r>
       <r>   -7.7012    1.0000 </r>
       <r>   -7.6641    1.0000 </r>
       <r>   -7.0954    1.0000 </r>
       <r>   -6.6717    1.0000 </r>
       <r>   -6.6556    1.0000 </r>
       <r>   -5.8962    1.0000 </r>
       <r>   -5.0174    1.0000 </r>
       <r>   -5.0010    1.0000 </r>
       <r>   -4.6649    1.0000 </r>
       <r>   -1.2401    0.0000 </r>
       <r>   -1.0296    0.0000 </r>
       <r>   -1.0061    0.0000 </r>
       <r>    0.5349    0.0000 </r>
       <r>    1.3916    0.0000 </r>
       <r>    1.4685    0.0000 </r>
       <r>    1.4889    0.0000 </r>
       <r>    1.8994    0.0000 </r>
       <r>    1.9009    0.0000 </r>
       <r>    2.1938    0.0000 </r>
      </set>
     </set>
    </set>
   </array>
  </eigenvalues>
  <separator name="orbital magnetization" >
   <v name="MAGDIPOLOUT">      0.00000000      0.00000000      0.00000000</v>
  </separator>
  <dos>
   <i name="efermi">     -2.75524444 </i>
   <total>
    <array>
     <dimension dim="1">gridpoints</dimension>
     <dimension dim="2">spin</dimension>
     <field>energy</field>
     <field>total</field>
     <field>integrated</field>
     <set>
      <set comment="spin 1">
       <r>   -23.5114     0.0000     0.0000 </r>
       <r>   -23.4194     0.0000     0.0000 </r>
       <r>   -23.3273     0.0000     0.0000 </r>
       <r>   -23.2352     0.0000     0.0000 </r>
       <r>   -23.1432     0.0000     0.0000 </r>
       <r>   -23.0511     0.0000     0.0000 </r>
       <r>   -22.9591     0.0000     0.0000 </r>
       <r>   -22.8670     0.0000     0.0000 </r>
       <r>   -22.7749     0.0000     0.0000 </r>
       <r>   -22.6829     0.0000     0.0000 </r>
       <r>   -22.5908     0.0000     0.0000 </r>
       <r>   -22.4988     0.0000     0.0000 </r>
       <r>   -22.4067     0.0000     0.0000 </r>
       <r>   -22.3146     0.0236     0.0022 </r>
       <r>   -22.2226     1.1018     0.1036 </r>
       <r>   -22.1305     2.3660     0.3214 </r>
       <r>   -22.0385     3.5657     0.6497 </r>
       <r>   -21.9464     1.5377     0.7912 </r>
       <r>   -21.8543     4.0198     1.1613 </r>
       <r>   -21.7623     2.8376     1.4225 </r>
       <r>   -21.6702     1.1179     1.5255 </r>
       <r>   -21.5782     3.8583     1.8807 </r>
       <r>   -21.4861     3.8899     2.2388 </r>
       <r>   -21.3940     1.6570     2.3913 </r>
       <r>   -21.3020     1.3454     2.5152 </r>
       <r>   -21.2099     4.2350     2.9050 </r>
       <r>   -21.1179     4.6206     3.3304 </r>
       <r>   -21.0258     1.5124     3.4697 </r>
       <r>   -20.9337     1.1235     3.5731 </r>
       <r>   -20.8417     2.3746     3.7917 </r>
       <r>   -20.7496     5.5243     4.3003 </r>
       <r>   -20.6576     2.1364     4.4969 </r>
       <r>   -20.5655     4.2575     4.8889 </r>
       <r>   -20.4734     0.5422     4.9388 </r>
       <r>   -20.3814     0.5435     4.9888 </r>
       <r>   -20.2893     5.1463     5.4626 </r>
       <r>   -20.1973     4.6791     5.8934 </r>
       <r>   -20.1052     2.8912     6.1595 </r>
       <r>   -20.0131     1.1894     6.2690 </r>
       <r>   -19.9211     3.9529     6.6329 </r>
       <r>   -19.8290     0.2236     6.6535 </r>
       <r>   -19.7370     1.3597     6.7787 </r>
       <r>   -19.6449     7.5608     7.4747 </r>
       <r>   -19.5528     2.6760     7.7211 </r>
       <r>   -19.4608     4.0701     8.0958 </r>
       <r>   -19.3687     0.2991     8.1233 </r>
       <r>   -19.2767     1.8482     8.2935 </r>
       <r>   -19.1846     3.3772     8.6044 </r>
       <r>   -19.0925     1.0967     8.7053 </r>
       <r>   -19.0005     4.6632     9.1346 </r>
       <r>   -18.9084     5.7968     9.6683 </r>
       <r>   -18.8163     2.0685     9.8587 </r>
       <r>   -18.7243     4.0345    10.2301 </r>
       <r>   -18.6322     1.0454    10.3264 </r>
       <r>   -18.5402     0.0498    10.3309 </r>
       <r>   -18.4481     3.0248    10.6094 </r>
       <r>   -18.3560     4.0178    10.9793 </r>
       <r>   -18.2640     5.5423    11.4895 </r>
       <r>   -18.1719     2.5701    11.7261 </r>
       <r>   -18.0799     4.1781    12.1108 </r>
       <r>   -17.9878     1.9772    12.2928 </r>
       <r>   -17.8957     3.7918    12.6418 </r>
       <r>   -17.8037     1.4483    12.7752 </r>
       <r>   -17.7116     0.0069    12.7758 </r>
       <r>   -17.6196     1.8096    12.9424 </r>
       <r>   -17.5275     8.6187    13.7359 </r>
       <r>   -17.4354     4.9787    14.1942 </r>
       <r>   -17.3434     1.4430    14.3270 </r>
       <r>   -17.2513     4.7764    14.7668 </r>
       <r>   -17.1593     2.3862    14.9864 </r>
       <r>   -17.0672     3.8293    15.3390 </r>
       <r>   -16.9751     3.0806    15.6226 </r>
       <r>   -16.8831     0.9963    15.7143 </r>
       <r>   -16.7910     1.5632    15.8582 </r>
       <r>   -16.6990     8.6740    16.6567 </r>
       <r>   -16.6069     5.5319    17.1660 </r>
       <r>   -16.5148     0.1922    17.1837 </r>
       <r>   -16.4228     0.0000    17.1837 </r>
       <r>   -16.3307     0.0000    17.1837 </r>
       <r>   -16.2387     0.0416    17.1875 </r>
       <r>   -16.1466     1.7263    17.3464 </r>
       <r>   -16.0545     1.1698    17.4541 </r>
       <r>   -15.9625     4.7685    17.8931 </r>
       <r>   -15.8704     2.8536    18.1558 </r>
       <r>   -15.7784     0.5761    18.2088 </r>
       <r>   -15.6863     3.2431    18.5074 </r>
       <r>   -15.5942     5.2735    18.9929 </r>
       <r>   -15.5022     1.6223    19.1422 </r>
       <r>   -15.4101     0.0745    19.1491 </r>
       <r>   -15.3181     1.6478    19.3008 </r>
       <r>   -15.2260     9.8642    20.2089 </r>
       <r>   -15.1339     3.4837    20.5296 </r>
       <r>   -15.0419     1.0124    20.6228 </r>
       <r>   -14.9498     4.8887    21.0729 </r>
       <r>   -14.8578     4.4177    21.4796 </r>
       <r>   -14.7657     1.3428    21.6032 </r>
       <r>   -14.6736     2.8089    21.8618 </r>
       <r>   -14.5816     8.4658    22.6411 </r>
       <r>   -14.4895     1.0156    22.7346 </r>
       <r>   -14.3975     0.1036    22.7442 </r>
       <r>   -14.3054     3.7580    23.0901 </r>
       <r>   -14.2133     4.1689    23.4739 </r>
       <r>   -14.1213     4.3955    23.8786 </r>
       <r>   -14.0292     0.9559    23.9666 </r>
       <r>   -13.9372     3.3546    24.2754 </r>
       <r>   -13.8451     1.8786    24.4483 </r>
       <r>   -13.7530     1.2664    24.5649 </r>
       <r>   -13.6610     3.9902    24.9323 </r>
       <r>   -13.5689     2.3233    25.1462 </r>
       <r>   -13.4768     4.2982    25.5419 </r>
       <r>   -13.3848     1.4417    25.6746 </r>
       <r>   -13.2927     2.4486    25.9000 </r>
       <r>   -13.2007     3.6712    26.2380 </r>
       <r>   -13.1086     0.0759    26.2450 </r>
       <r>   -13.0165     0.8524    26.3234 </r>
       <r>   -12.9245     9.3191    27.1813 </r>
       <r>   -12.8324     5.1101    27.6518 </r>
       <r>   -12.7404     3.2745    27.9532 </r>
       <r>   -12.6483     0.3672    27.9870 </r>
       <r>   -12.5562     2.1256    28.1827 </r>
       <r>   -12.4642     0.2731    28.2079 </r>
       <r>   -12.3721     1.5873    28.3540 </r>
       <r>   -12.2801     7.8950    29.0808 </r>
       <r>   -12.1880     8.7092    29.8826 </r>
       <r>   -12.0959     3.0075    30.1594 </r>
       <r>   -12.0039     0.0510    30.1641 </r>
       <r>   -11.9118     1.9117    30.3401 </r>
       <r>   -11.8198     3.3825    30.6515 </r>
       <r>   -11.7277     3.6719    30.9896 </r>
       <r>   -11.6356     6.4543    31.5838 </r>
       <r>   -11.5436     0.5309    31.6326 </r>
       <r>   -11.4515     0.2369    31.6544 </r>
       <r>   -11.3595     6.4663    32.2497 </r>
       <r>   -11.2674     6.0681    32.8084 </r>
       <r>   -11.1753     3.3748    33.1191 </r>
       <r>   -11.0833     5.5174    33.6270 </r>
       <r>   -10.9912     4.7376    34.0631 </r>
       <r>   -10.8992     2.8210    34.3228 </r>
       <r>   -10.8071     0.0402    34.3265 </r>
       <r>   -10.7150     0.0053    34.3270 </r>
       <r>   -10.6230     1.5676    34.4713 </r>
       <r>   -10.5309    10.9554    35.4799 </r>
       <r>   -10.4389    10.5990    36.4556 </r>
       <r>   -10.3468     2.8912    36.7218 </r>
       <r>   -10.2547     5.9171    37.2665 </r>
       <r>   -10.1627     2.0685    37.4569 </r>
       <r>   -10.0706     4.3044    37.8532 </r>
       <r>    -9.9786     4.9558    38.3094 </r>
       <r>    -9.8865    10.8268    39.3062 </r>
       <r>    -9.7944     9.9672    40.2237 </r>
       <r>    -9.7024     6.2653    40.8005 </r>
       <r>    -9.6103     8.7405    41.6052 </r>
       <r>    -9.5183     8.8963    42.4242 </r>
       <r>    -9.4262     5.4775    42.9284 </r>
       <r>    -9.3341     3.8461    43.2825 </r>
       <r>    -9.2421    10.2467    44.2258 </r>
       <r>    -9.1500    12.1507    45.3444 </r>
       <r>    -9.0580    14.6960    46.6973 </r>
       <r>    -8.9659     6.8972    47.3323 </r>
       <r>    -8.8738     3.1578    47.6230 </r>
       <r>    -8.7818    12.2866    48.7541 </r>
       <r>    -8.6897     6.8861    49.3881 </r>
       <r>    -8.5977     7.4493    50.0738 </r>
       <r>    -8.5056     7.0399    50.7219 </r>
       <r>    -8.4135     8.0863    51.4664 </r>
       <r>    -8.3215     3.3540    51.7751 </r>
       <r>    -8.2294     3.9971    52.1431 </r>
       <r>    -8.1373     5.6227    52.6607 </r>
       <r>    -8.0453    13.6572    53.9180 </r>
       <r>    -7.9532     5.3552    54.4110 </r>
       <r>    -7.8612     4.9452    54.8663 </r>
       <r>    -7.7691     1.2128    54.9779 </r>
       <r>    -7.6770     8.3404    55.7457 </r>
       <r>    -7.5850     7.0716    56.3968 </r>
       <r>    -7.4929     5.1183    56.8679 </r>
       <r>    -7.4009     2.9913    57.1433 </r>
       <r>    -7.3088     7.2977    57.8152 </r>
       <r>    -7.2167     2.3401    58.0306 </r>
       <r>    -7.1247     9.9561    58.9472 </r>
       <r>    -7.0326     7.7440    59.6601 </r>
       <r>    -6.9406     3.5657    59.9883 </r>
       <r>    -6.8485     3.5674    60.3167 </r>
       <r>    -6.7564     0.1571    60.3312 </r>
       <r>    -6.6644     4.3290    60.7297 </r>
       <r>    -6.5723    10.5314    61.6993 </r>
       <r>    -6.4803     8.8229    62.5115 </r>
       <r>    -6.3882     4.1237    62.8911 </r>
       <r>    -6.2961     4.0468    63.2637 </r>
       <r>    -6.2041     1.7490    63.4247 </r>
       <r>    -6.1120     4.9678    63.8820 </r>
       <r>    -6.0200     4.8704    64.3304 </r>
       <r>    -5.9279     2.8273    64.5907 </r>
       <r>    -5.8358     7.9163    65.3195 </r>
       <r>    -5.7438     7.1491    65.9776 </r>
       <r>    -5.6517     3.4577    66.2959 </r>
       <r>    -5.5597     3.7930    66.6451 </r>
       <r>    -5.4676     1.4730    66.7807 </r>
       <r>    -5.3755     3.1963    67.0750 </r>
       <r>    -5.2835     2.0816    67.2666 </r>
       <r>    -5.1914     1.5374    67.4081 </r>
       <r>    -5.0994     3.2579    67.7081 </r>
       <r>    -5.0073    15.5326    69.1380 </r>
       <r>    -4.9152     6.1988    69.7087 </r>
       <r>    -4.8232     0.0612    69.7143 </r>
       <r>    -4.7311     0.1423    69.7274 </r>
       <r>    -4.6391     2.0488    69.9160 </r>
       <r>    -4.5470     0.4725    69.9595 </r>
       <r>    -4.4549     1.4274    70.0909 </r>
       <r>    -4.3629     3.9568    70.4552 </r>
       <r>    -4.2708     5.0457    70.9197 </r>
       <r>    -4.1788     2.8300    71.1802 </r>
       <r>    -4.0867     0.0376    71.1837 </r>
       <r>    -3.9946     0.0113    71.1847 </r>
       <r>    -3.9026     1.2237    71.2974 </r>
       <r>    -3.8105     1.4067    71.4269 </r>
       <r>    -3.7185     0.0184    71.4286 </r>
       <r>    -3.6264     0.0153    71.4300 </r>
       <r>    -3.5343     2.2020    71.6327 </r>
       <r>    -3.4423     3.0520    71.9137 </r>
       <r>    -3.3502     0.0511    71.9184 </r>
       <r>    -3.2582     0.0000    71.9184 </r>
       <r>    -3.1661     0.0000    71.9184 </r>
       <r>    -3.0740     0.0000    71.9184 </r>
       <r>    -2.9820     0.0000    71.9184 </r>
       <r>    -2.8899     0.0005    71.9184 </r>
       <r>    -2.7979     0.2515    71.9416 </r>
       <r>    -2.7058     1.3323    72.0642 </r>
       <r>    -2.6137     0.1890    72.0816 </r>
       <r>    -2.5217     0.0002    72.0816 </r>
       <r>    -2.4296     0.0000    72.0816 </r>
       <r>    -2.3375     0.0000    72.0816 </r>
       <r>    -2.2455     0.0000    72.0816 </r>
       <r>    -2.1534     0.0001    72.0816 </r>
       <r>    -2.0614     0.3108    72.1103 </r>
       <r>    -1.9693     4.1242    72.4899 </r>
       <r>    -1.8772     0.8841    72.5713 </r>
       <r>    -1.7852     0.0564    72.5765 </r>
       <r>    -1.6931     1.7557    72.7381 </r>
       <r>    -1.6011     0.8452    72.8160 </r>
       <r>    -1.5090     0.0041    72.8163 </r>
       <r>    -1.4169     0.0034    72.8166 </r>
       <r>    -1.3249     1.9858    72.9994 </r>
       <r>    -1.2328    11.3384    74.0433 </r>
       <r>    -1.1408     2.8402    74.3047 </r>
       <r>    -1.0487     3.5228    74.6290 </r>
       <r>    -0.9566     5.7674    75.1600 </r>
       <r>    -0.8646     1.8474    75.3301 </r>
       <r>    -0.7725     4.1880    75.7156 </r>
       <r>    -0.6805     3.4113    76.0297 </r>
       <r>    -0.5884     4.7593    76.4678 </r>
       <r>    -0.4963     2.9885    76.7429 </r>
       <r>    -0.4043     3.7615    77.0892 </r>
       <r>    -0.3122     3.3055    77.3935 </r>
       <r>    -0.2202     5.2028    77.8725 </r>
       <r>    -0.1281     0.9380    77.9588 </r>
       <r>    -0.0360     0.0043    77.9592 </r>
       <r>     0.0560     0.5523    78.0101 </r>
       <r>     0.1481     4.1961    78.3964 </r>
       <r>     0.2401     1.5639    78.5403 </r>
       <r>     0.3322     4.1146    78.9191 </r>
       <r>     0.4243     3.6257    79.2529 </r>
       <r>     0.5163     3.1221    79.5403 </r>
       <r>     0.6084     3.6509    79.8764 </r>
       <r>     0.7004     1.3361    79.9994 </r>
       <r>     0.7925     5.8258    80.5358 </r>
       <r>     0.8846     5.9170    81.0805 </r>
       <r>     0.9766     1.4983    81.2184 </r>
       <r>     1.0687     4.2753    81.6120 </r>
       <r>     1.1607     1.8265    81.7802 </r>
       <r>     1.2528     5.6603    82.3012 </r>
       <r>     1.3449     2.1106    82.4956 </r>
       <r>     1.4369     6.9682    83.1370 </r>
       <r>     1.5290    13.9519    84.4215 </r>
       <r>     1.6210     4.5469    84.8401 </r>
       <r>     1.7131     4.6673    85.2697 </r>
       <r>     1.8052     3.3531    85.5784 </r>
       <r>     1.8972     8.8176    86.3902 </r>
       <r>     1.9893     8.8843    87.2081 </r>
       <r>     2.0813     9.2263    88.0574 </r>
       <r>     2.1734     6.9348    88.6959 </r>
       <r>     2.2655     6.8847    89.3297 </r>
       <r>     2.3575     7.3032    90.0020 </r>
       <r>     2.4496     4.9943    90.4618 </r>
       <r>     2.5416     3.6352    90.7964 </r>
       <r>     2.6337     3.5225    91.1207 </r>
       <r>     2.7258     2.3998    91.3416 </r>
       <r>     2.8178     4.5300    91.7587 </r>
       <r>     2.9099     2.4916    91.9880 </r>
       <r>     3.0020     0.1299    92.0000 </r>
       <r>     3.0940     0.0000    92.0000 </r>
       <r>     3.1861     0.0000    92.0000 </r>
       <r>     3.2781     0.0000    92.0000 </r>
       <r>     3.3702     0.0000    92.0000 </r>
       <r>     3.4623     0.0000    92.0000 </r>
       <r>     3.5543     0.0000    92.0000 </r>
       <r>     3.6464     0.0000    92.0000 </r>
       <r>     3.7384     0.0000    92.0000 </r>
       <r>     3.8305     0.0000    92.0000 </r>
       <r>     3.9226     0.0000    92.0000 </r>
       <r>     4.0146     0.0000    92.0000 </r>
       <r>     4.1067     0.0000    92.0000 </r>
      </set>
     </set>
    </array>
   </total>
  </dos>
 </calculation>
 <structure name="finalpos" >
  <crystal>
   <varray name="basis" >
    <v>       7.40170591       0.00000000       0.00000000 </v>
    <v>      -3.70085295       6.41006527       0.00000000 </v>
    <v>       0.00000000       0.00000000      20.00000000 </v>
   </varray>
   <i name="volume">    948.90835877 </i>
   <varray name="rec_basis" >
    <v>       0.13510399       0.07800233       0.00000000 </v>
    <v>       0.00000000       0.15600465       0.00000000 </v>
    <v>       0.00000000       0.00000000       0.05000000 </v>
   </varray>
  </crystal>
  <varray name="positions" >
   <v>       0.99864896       0.00000000       0.50000000 </v>
   <v>       0.33333333       0.00000000       0.50000000 </v>
   <v>       0.66666667       0.00000000       0.50000000 </v>
   <v>       0.00000000       0.33333333       0.50000000 </v>
   <v>       0.33333333       0.33333333       0.50000000 </v>
   <v>       0.66666667       0.33333333       0.50000000 </v>
   <v>       0.00000000       0.66666667       0.50000000 </v>
   <v>       0.33333333       0.66666667       0.50000000 </v>
   <v>       0.66666667       0.66666667       0.50000000 </v>
   <v>       0.22300225       0.11267116       0.50000000 </v>
   <v>       0.55555556       0.11111111       0.50000000 </v>
   <v>       0.88888889       0.11111111       0.50000000 </v>
   <v>       0.22222222       0.44444444       0.50000000 </v>
   <v>       0.55555556       0.44444444       0.50000000 </v>
   <v>       0.88888889       0.44444444       0.50000000 </v>
   <v>       0.22222222       0.77777778       0.50000000 </v>
   <v>       0.55555556       0.77777778       0.50000000 </v>
   <v>       0.88888889       0.77777778       0.50000000 </v>
  </varray>
 </structure>
</modeling>
