  -0.22316E-01   0.29309E-03   0.29307E-03   0.17820E-03   0.17765E-03   0.17819E-03
   0.27302E+00   0.25287E-02   0.25285E-02   0.15370E-02   0.15318E-02   0.15368E-02
   0.56836E+00   0.44844E-02   0.44840E-02   0.27204E-02   0.27042E-02   0.27202E-02
   0.86370E+00   0.69454E-02   0.69447E-02   0.41927E-02   0.41514E-02   0.41923E-02
   0.11590E+01   0.97118E-02   0.97108E-02   0.58245E-02   0.57346E-02   0.58239E-02
   0.14544E+01   0.11683E-01   0.11683E-01   0.69750E-02   0.68170E-02   0.69744E-02
   0.17497E+01   0.14767E-01   0.14766E-01   0.87419E-02   0.84817E-02   0.87412E-02
   0.20451E+01   0.18405E-01   0.18403E-01   0.10758E-01   0.10356E-01   0.10757E-01
   0.23404E+01   0.20469E-01   0.20467E-01   0.11820E-01   0.11266E-01   0.11819E-01
   0.26357E+01   0.22309E-01   0.22307E-01   0.12777E-01   0.12064E-01   0.12776E-01
   0.29311E+01   0.24376E-01   0.24374E-01   0.13798E-01   0.12894E-01   0.13797E-01
   0.32264E+01   0.27980E-01   0.27977E-01   0.15561E-01   0.14403E-01   0.15559E-01
   0.35218E+01   0.32062E-01   0.32059E-01   0.17420E-01   0.15946E-01   0.17418E-01
   0.38171E+01   0.35840E-01   0.35837E-01   0.19070E-01   0.17221E-01   0.19068E-01
   0.41124E+01   0.42486E-01   0.42482E-01   0.22117E-01   0.19711E-01   0.22114E-01
   0.44078E+01   0.53000E-01   0.52995E-01   0.26863E-01   0.23479E-01   0.26861E-01
   0.47031E+01   0.58598E-01   0.58594E-01   0.29869E-01   0.25848E-01   0.29867E-01
   0.49985E+01   0.75221E-01   0.75216E-01   0.38164E-01   0.32731E-01   0.38162E-01
   0.52938E+01   0.81378E-01   0.81373E-01   0.41481E-01   0.35679E-01   0.41478E-01
   0.55891E+01   0.11253E+00   0.11252E+00   0.57414E-01   0.49926E-01   0.57410E-01
   0.58845E+01   0.39581E+00   0.39580E+00   0.15301E+00   0.13320E+00   0.15300E+00
   0.61798E+01   0.24485E+00   0.24485E+00   0.94036E-01   0.77863E-01   0.94034E-01
   0.64752E+01   0.27731E+00   0.27732E+00   0.10081E+00   0.81516E-01   0.10081E+00
   0.67705E+01   0.33551E+00   0.33551E+00   0.12311E+00   0.74417E-01   0.12311E+00
   0.70658E+01   0.27864E+00   0.27865E+00   0.10319E+00   0.51529E-01   0.10320E+00
   0.73612E+01   0.25768E+00   0.25768E+00   0.98846E-01   0.44890E-01   0.98847E-01
   0.76565E+01   0.26966E+00   0.26966E+00   0.10542E+00   0.39548E-01   0.10543E+00
   0.79519E+01   0.17481E+00   0.17482E+00   0.75603E-01   0.95906E-02   0.75608E-01
   0.82472E+01   0.21042E+00   0.21043E+00   0.92421E-01   0.81308E-02   0.92426E-01
   0.85425E+01   0.22742E+00   0.22743E+00   0.99591E-01   0.82717E-02   0.99595E-01
   0.88379E+01   0.30373E+00   0.30374E+00   0.13339E+00   0.96740E-02   0.13339E+00
   0.91332E+01   0.24374E+00   0.24375E+00   0.10948E+00   0.13318E-01   0.10948E+00
   0.94286E+01   0.46354E+00   0.46354E+00   0.22773E+00   0.24774E-01   0.22772E+00
   0.97239E+01   0.26742E+00   0.26742E+00   0.18172E+00   0.54964E-01   0.18172E+00
   0.10019E+02   0.62865E+00   0.62865E+00   0.39962E+00   0.21809E+00   0.39963E+00
   0.10315E+02   0.15692E+00   0.15693E+00   0.11944E+00   0.25750E-01   0.11945E+00
   0.10610E+02   0.50218E-01   0.50221E-01   0.55076E-01   0.39547E-02   0.55080E-01
   0.10905E+02   0.57493E-01   0.57495E-01   0.66050E-01   0.56198E-02   0.66052E-01
   0.11201E+02   0.68992E-01   0.68995E-01   0.84058E-01   0.58824E-02   0.84057E-01
   0.11496E+02   0.16707E+00   0.16707E+00   0.21554E+00   0.13941E-01   0.21553E+00
   0.11791E+02   0.81623E-01   0.81623E-01   0.10774E+00   0.43260E-02   0.10774E+00
   0.12087E+02   0.50473E-01   0.50472E-01   0.69031E-01   0.79127E-03   0.69033E-01
   0.12382E+02   0.13452E-01   0.13447E-01   0.42028E-02   0.29111E-01   0.42027E-02
   0.12677E+02   0.19756E+00   0.19755E+00   0.13896E+00   0.55760E+00   0.13896E+00
   0.12973E+02   0.18241E+00   0.18239E+00   0.12561E+00   0.57891E+00   0.12561E+00
   0.13268E+02   0.11994E+00   0.11993E+00   0.85356E-01   0.41828E+00   0.85356E-01
   0.13563E+02   0.50817E-01   0.50814E-01   0.45228E-01   0.17591E+00   0.45228E-01
   0.13859E+02   0.93893E-01   0.93885E-01   0.12461E+00   0.42402E+00   0.12460E+00
   0.14154E+02   0.91160E-01   0.91154E-01   0.13314E+00   0.42295E+00   0.13314E+00
   0.14449E+02   0.12191E+00   0.12190E+00   0.13486E+00   0.48841E+00   0.13485E+00
   0.14745E+02   0.58774E-01   0.58766E-01   0.58371E-01   0.24057E+00   0.58366E-01
   0.15040E+02   0.33411E-01   0.33407E-01   0.33171E-01   0.13107E+00   0.33168E-01
   0.15335E+02   0.45309E-01   0.45306E-01   0.42911E-01   0.19578E+00   0.42911E-01
   0.15631E+02   0.64284E-01   0.64283E-01   0.60537E-01   0.27618E+00   0.60541E-01
   0.15926E+02   0.65712E-01   0.65706E-01   0.56504E-01   0.32730E+00   0.56506E-01
   0.16221E+02   0.57890E-01   0.57889E-01   0.53525E-01   0.32915E+00   0.53527E-01
   0.16517E+02   0.41932E-01   0.41934E-01   0.44445E-01   0.28237E+00   0.44446E-01
   0.16812E+02   0.34867E-01   0.34869E-01   0.48169E-01   0.31012E+00   0.48170E-01
   0.17107E+02   0.22135E-01   0.22137E-01   0.38365E-01   0.16616E+00   0.38367E-01
   0.17403E+02   0.83720E-02   0.83741E-02   0.12497E-01   0.15976E-01   0.12500E-01
   0.17698E+02   0.10782E+00   0.10784E+00   0.31978E+00   0.12760E+00   0.31984E+00
   0.17993E+02   0.81509E-01   0.81534E-01   0.30459E+00   0.16137E+00   0.30470E+00
   0.18289E+02   0.12967E+00   0.12967E+00   0.53378E+00   0.52637E+00   0.53376E+00
   0.18584E+02   0.90302E-01   0.90289E-01   0.31846E+00   0.29043E+00   0.31840E+00
   0.18879E+02   0.81616E-01   0.81609E-01   0.37230E+00   0.36342E+00   0.37227E+00
   0.19175E+02   0.56030E-01   0.56025E-01   0.21998E+00   0.21589E+00   0.21995E+00
   0.19470E+02   0.55056E-01   0.55056E-01   0.21056E+00   0.27566E+00   0.21055E+00
   0.19765E+02   0.57280E-01   0.57279E-01   0.19099E+00   0.24967E+00   0.19098E+00
   0.20061E+02   0.64816E-01   0.64814E-01   0.18544E+00   0.23456E+00   0.18543E+00
   0.20356E+02   0.44271E-01   0.44269E-01   0.14774E+00   0.19641E+00   0.14773E+00
   0.20651E+02   0.39498E-01   0.39492E-01   0.11395E+00   0.12489E+00   0.11394E+00
   0.20947E+02   0.60591E-01   0.60590E-01   0.38903E+00   0.10016E+01   0.38902E+00
   0.21242E+02   0.93874E-01   0.93872E-01   0.12836E+00   0.24147E-01   0.12836E+00
   0.21537E+02   0.14262E+00   0.14262E+00   0.19187E+00   0.19721E-01   0.19187E+00
   0.21833E+02   0.27492E+00   0.27492E+00   0.38394E+00   0.20315E-01   0.38394E+00
   0.22128E+02   0.14936E+00   0.14936E+00   0.18593E+00   0.11173E-01   0.18593E+00
   0.22423E+02   0.11075E+00   0.11075E+00   0.12657E+00   0.77719E-02   0.12657E+00
   0.22719E+02   0.97055E-01   0.97055E-01   0.10492E+00   0.94728E-02   0.10493E+00
   0.23014E+02   0.94853E-01   0.94853E-01   0.99436E-01   0.92099E-02   0.99437E-01
   0.23310E+02   0.11259E+00   0.11260E+00   0.12021E+00   0.12354E-01   0.12021E+00
   0.23605E+02   0.91032E-01   0.91033E-01   0.93509E-01   0.89528E-02   0.93510E-01
   0.23900E+02   0.11555E+00   0.11555E+00   0.11339E+00   0.11096E-01   0.11339E+00
   0.24196E+02   0.12158E+00   0.12158E+00   0.12034E+00   0.15341E-01   0.12034E+00
   0.24491E+02   0.10348E+00   0.10348E+00   0.10162E+00   0.17223E-01   0.10162E+00
   0.24786E+02   0.95665E-01   0.95665E-01   0.91450E-01   0.18739E-01   0.91450E-01
   0.25082E+02   0.30680E-01   0.30680E-01   0.35229E-01   0.37814E-02   0.35229E-01
   0.25377E+02   0.25114E-01   0.25114E-01   0.27728E-01   0.39035E-02   0.27728E-01
   0.25672E+02   0.26472E-01   0.26472E-01   0.28414E-01   0.43062E-02   0.28414E-01
   0.25968E+02   0.27661E-01   0.27661E-01   0.27800E-01   0.68922E-02   0.27801E-01
   0.26263E+02   0.15568E-01   0.15567E-01   0.17834E-01   0.19926E-04   0.17833E-01
   0.26558E+02   0.10538E-01   0.10536E-01   0.12119E-01   0.37807E-06   0.12118E-01
   0.26854E+02   0.00000E+00   0.00000E+00   0.00000E+00   0.00000E+00   0.00000E+00
   0.27149E+02   0.00000E+00   0.00000E+00   0.00000E+00   0.00000E+00   0.00000E+00
   0.27444E+02   0.00000E+00   0.00000E+00   0.00000E+00   0.00000E+00   0.00000E+00
   0.27740E+02   0.00000E+00   0.00000E+00   0.00000E+00   0.00000E+00   0.00000E+00
   0.28035E+02   0.00000E+00   0.00000E+00   0.00000E+00   0.00000E+00   0.00000E+00
   0.28330E+02   0.00000E+00   0.00000E+00   0.00000E+00   0.00000E+00   0.00000E+00
   0.28626E+02   0.00000E+00   0.00000E+00   0.00000E+00   0.00000E+00   0.00000E+00
   0.28921E+02   0.00000E+00   0.00000E+00   0.00000E+00   0.00000E+00   0.00000E+00
   0.29216E+02   0.00000E+00   0.00000E+00   0.00000E+00   0.00000E+00   0.00000E+00
