  80   80
1 1
     4.298123218293282     0.000000000000000    -0.000000000000000
     0.000000000000001     4.298123218293282    -0.000000000000000
     0.000000000000000     0.000000000000000     3.905841356928433
1 2
    -0.791681556658930    -0.133185613768772    -0.152795157845790
     0.133190178533979     0.331020288528763     0.358057068811300
     0.152783779917279     0.358056506616631     0.563074630216903
1 3
    -0.183816280583883     0.000000000000000     0.000000000000000
     0.000000000000000     0.052166282780247     0.026047955527952
     0.000000000000000     0.026056575367021     0.070458742338311
1 4
    -0.791681556658930     0.133185613768772     0.152795157845790
    -0.133190178533979     0.331020288528763     0.358057068811300
    -0.152783779917279     0.358056506616631     0.563074630216903
1 5
     0.050346803833156     0.352955122061425    -0.233688938672283
     0.619330914364177    -0.511008071963322    -0.311353022675357
    -0.386477920678953    -0.046713618613741     0.563074630216903
1 6
     0.050346803833156    -0.352955122061426     0.233688938672283
    -0.619330914364177    -0.511008071963322    -0.311353022675357
     0.386477920678953    -0.046713618613741     0.563074630216903
1 7
    -0.064430124069476    -0.049167325090767    -0.016933760198050
    -0.049167325090767    -0.007656587316500    -0.009776711008737
     0.022656841024321     0.013080933264378     0.018766492824800
1 8
    -0.064430124069476     0.049167325090767     0.016933760198050
     0.049167325090767    -0.007656587316500    -0.009776711008737
    -0.022656841024321     0.013080933264378     0.018766492824800
1 9
    -0.006829358060786     0.102183447361754    -0.022558191203854
     0.102183447361754    -0.124820639742851    -0.013023977763976
    -0.022565656203464    -0.013028287683511     0.070458742338311
1 10
     0.020726379959884    -0.000000000000000    -0.000000000000000
    -0.000000000000000    -0.092817024170617    -0.026166027634427
     0.000000000000000     0.019550650364955     0.018766492824800
1 11
    -0.006829358060786    -0.102183447361754     0.022558191203854
    -0.102183447361754    -0.124820639742851    -0.013023977763976
     0.022565656203464    -0.013028287683511     0.070458742338311
1 12
     0.020730181059989    -0.000000000000000     0.000000000000000
    -0.000000000000000    -0.092816892445965     0.019553422017474
    -0.000000000000000    -0.026161866528756     0.018766492824800
1 13
     0.050342850630524     0.619333196746781    -0.386484096518073
     0.352957404444029    -0.511004118760691    -0.046704046135943
    -0.233694140761674    -0.311342888002890     0.563074630216903
1 14
    -0.064431173137992     0.049165736204588    -0.022660444647539
     0.049165736204588    -0.007659471072741     0.013083013817213
     0.016931359876559    -0.009775325182477     0.018766492824800
1 15
    -0.064431173137992    -0.049165736204588     0.022660444647539
    -0.049165736204588    -0.007659471072741     0.013083013817213
    -0.016931359876559    -0.009775325182477     0.018766492824800
1 16
     0.050342850630524    -0.619333196746781     0.386484096518073
    -0.352957404444029    -0.511004118760691    -0.046704046135943
     0.233694140761674    -0.311342888002890     0.563074630216903
1 17
     0.078555467863000     0.257596017979856    -0.179679947885591
     0.257596017979856     0.376001728508691     0.103738266279724
    -0.179671252287394     0.103733245873764    -0.248197474958073
1 18
    -0.058299573172731     0.007001566094061    -0.033742325474665
     0.007003860241836    -0.016734790368720     0.011955368434942
    -0.033738139056343     0.011954254547509     0.050129697804128
1 19
    -0.058299573172731    -0.007001566094061     0.033742325474665
    -0.007003860241836    -0.016734790368720     0.011955368434942
     0.033738139056343     0.011954254547509     0.050129697804128
1 20
     0.078555467863000    -0.257596017979856     0.179679947885591
    -0.257596017979856     0.376001728508691     0.103738266279724
     0.179671252287394     0.103733245873764    -0.248197474958073
1 21
     0.524724858831536    -0.000000000000000    -0.000000000000000
    -0.000000000000000    -0.070167662459846    -0.207476532559447
    -0.000000000000000    -0.207466491747529    -0.248197474958073
1 22
    -0.442303289369733    -0.274503095469811    -0.371860379261747
    -0.274503095469811    -0.125334417243971    -0.214693690067726
    -0.371861679414949    -0.214694440711527    -0.278325639840563
1 23
    -0.272210031453270     0.000000000000000     0.000000000000000
     0.000000000000000     0.090830775537199     0.101615238980608
     0.000000000000000     0.101615388856871     0.212667110551618
1 24
    -0.442303289369732     0.274503095469811     0.371860379261747
     0.274503095469811    -0.125334417243971    -0.214693690067726
     0.371861679414949    -0.214694440711527    -0.278325639840563
1 25
    -0.021061458570864     0.014495575247666     0.006517509961070
     0.014497869395441    -0.053972904970588    -0.035199395261294
     0.006516381406723    -0.035195212772959     0.050129697804128
1 26
    -0.021061458570864    -0.014495575247666    -0.006517509961070
    -0.014497869395441    -0.053972904970588    -0.035199395261294
    -0.006516381406723    -0.035195212772959     0.050129697804128
1 27
     0.000070573789582    -0.157201280732075     0.088001378368833
    -0.157201280732075    -0.181449829705653    -0.050807619490304
     0.088001508165484    -0.050807694428435     0.212667110551618
1 28
     0.000070573789582     0.157201280732075    -0.088001378368833
     0.157201280732075    -0.181449829705653    -0.050807619490304
    -0.088001508165484    -0.050807694428435     0.212667110551618
1 29
    -0.033190513568583     0.021500582563390    -0.027224815513595
     0.021498288415615    -0.041843849972869     0.023244026826352
    -0.027221757649620     0.023240958225450     0.050129697804128
1 30
    -0.038079575710997    -0.000000000000000     0.000000000000000
    -0.000000000000000    -0.038079575710997    -0.000000000000000
    -0.000000000000000     0.000000000000000     0.000567338378471
1 31
    -0.033190513568583    -0.021500582563390     0.027224815513595
    -0.021498288415615    -0.041843849972869     0.023244026826352
     0.027221757649620     0.023240958225450     0.050129697804128
1 32
     0.033150018818910    -0.000000000000000     0.000000000000000
    -0.000000000000000    -0.600787725432613     0.429387380135452
     0.000000000000000     0.429388881423055    -0.278325639840563
1 33
    -1.014401032613142     0.352714314809809     1.173079527337705
     0.352714314809809    -0.607121623408187    -0.677277780889263
     0.691491117880022    -0.399232583050266    -1.440904760226627
1 34
     0.129149679072589    -0.032986219566971    -0.003202794161595
     0.010421678219156    -0.037614821527165    -0.053504545345411
     0.014515665575740    -0.057187431401274    -0.080441749230306
1 35
     0.129149679072589     0.032986219566971     0.003202794161595
    -0.010421678219156    -0.037614821527165    -0.053504545345411
    -0.014515665575740    -0.057187431401274    -0.080441749230306
1 36
    -1.014401032613142    -0.352714314809809    -1.173079527337705
    -0.352714314809809    -0.607121623408187    -0.677277780889263
    -0.691491117880022    -0.399232583050266    -1.440904760226627
1 37
    -0.403481918805710    -0.000000000000000     0.000000000000000
    -0.000000000000000    -1.218040737215619     1.354555561778526
     0.000000000000000     0.798465166100532    -1.440904760226627
1 38
     0.024859028172883     0.034149467635661     0.015464850151259
     0.034149467635661    -0.014573380491380     0.008928635397807
     0.001031380893823     0.000595468036686    -0.043434969442826
1 39
     0.014452218010985    -0.000000000000000     0.000000000000000
    -0.000000000000000    -0.012196743012766     0.001163691434007
     0.000000000000000     0.007977328962383    -0.003950463652749
1 40
     0.024859028172883    -0.034149467635661    -0.015464850151259
    -0.034149467635661    -0.014573380491380     0.008928635397807
    -0.001031380893823     0.000595468036686    -0.043434969442826
1 41
    -0.005694429393203    -0.088273960540516     0.047937692567860
    -0.044866062754389     0.097229286938627     0.023978571565672
     0.042267935582813     0.041164650842067    -0.080441749230306
1 42
    -0.005694429393203     0.088273960540516    -0.047937692567860
     0.044866062754389     0.097229286938627     0.023978571565672
    -0.042267935582813     0.041164650842067    -0.080441749230306
1 43
    -0.005534502756828     0.011539338615515     0.001007786344017
     0.011539338615515     0.007789977755047    -0.000581845717004
     0.006908569535769    -0.003988664481192    -0.003950463652749
1 44
    -0.005534502756828    -0.011539338615515    -0.001007786344017
    -0.011539338615515     0.007789977755047    -0.000581845717004
    -0.006908569535769    -0.003988664481192    -0.003950463652749
1 45
     0.013847036638749    -0.056148333428296     0.044734898406265
    -0.099556231214423     0.077687820906675     0.029525973779739
     0.056783601158553     0.016022780559207    -0.080441749230306
1 46
     0.035462280835121     0.000000000000000    -0.000000000000000
     0.000000000000000     0.035462280835121     0.000000000000000
     0.000000000000000    -0.000000000000000    -0.004782598654129
1 47
     0.013847036638749     0.056148333428297    -0.044734898406265
     0.099556231214423     0.077687820906674     0.029525973779739
    -0.056783601158553     0.016022780559207    -0.080441749230306
1 48
    -0.034289584823511     0.000000000000000    -0.000000000000000
     0.000000000000000     0.044575232505015    -0.017857270795613
    -0.000000000000000    -0.001190936073372    -0.043434969442826
1 49
    -0.144870723761342    -0.000000000000000     0.000000000000000
    -0.000000000000000    -0.344627654165149     0.034650757324236
     0.000000000000000     0.152608077588133    -0.230011289352193
1 50
     0.019015445226355    -0.024953361677657     0.048830443787730
    -0.024953361677657    -0.009798214937208    -0.028192269865495
    -0.001382385638774     0.000798120720670    -0.075010998900875
1 51
     0.035310597148977     0.000000000000000    -0.000000000000000
    -0.000000000000000    -0.001084534229184    -0.019410940773603
    -0.000000000000000    -0.007150352327640    -0.040724094659312
1 52
     0.019015445226355     0.024953361677657    -0.048830443787730
     0.024953361677657    -0.009798214937208    -0.028192269865495
     0.001382385638774     0.000798120720670    -0.075010998900875
1 53
    -0.294688421564197     0.086497288155848     0.030008436103159
     0.086497288155848    -0.194809956362294    -0.017325378662118
     0.132162472014030    -0.076304038794067    -0.230011289352193
1 54
    -0.294688421564197    -0.086497288155848    -0.030008436103158
    -0.086497288155848    -0.194809956362294    -0.017325378662118
    -0.132162472014030    -0.076304038794067    -0.230011289352193
1 55
     0.204585406022015     0.075318508603682     0.118259057240975
    -0.045361530010708    -0.061161841837091    -0.115758347311484
    -0.065318645461648    -0.077749251148908    -0.176813589740232
1 56
     0.204585406022015    -0.075318508603682    -0.118259057240975
     0.045361530010708    -0.061161841837091    -0.115758347311484
     0.065318645461648    -0.077749251148908    -0.176813589740232
1 57
     0.018246722368756    -0.062221159156941     0.041120140851360
    -0.182901197771332     0.125176841816168     0.160294521454024
     0.099992149350995    -0.017692980736123    -0.176813589740232
1 58
    -0.024205045018989     0.000000000000000    -0.000000000000000
     0.000000000000000     0.033422275308137     0.056384539730990
    -0.000000000000000    -0.001596241441341    -0.075010998900875
1 59
     0.018246722368756     0.062221159156941    -0.041120140851360
     0.182901197771332     0.125176841816168     0.160294521454024
    -0.099992149350995    -0.017692980736123    -0.176813589740232
1 60
     0.042403716531471     0.000000000000000     0.000000000000000
     0.000000000000000     0.042403716531471     0.000000000000000
     0.000000000000000    -0.000000000000000    -0.087143058794224
1 61
    -0.007696782113385    -0.167922708474845     0.159379198092335
    -0.047242669860454     0.151120346298310    -0.044536174142541
     0.034673503889346     0.095442231885030    -0.176813589740232
1 62
     0.008014248615356    -0.015759554173780     0.016810367821295
    -0.015759554173780     0.026211814304437     0.009705470386801
     0.006192386761745     0.003575176163820    -0.040724094659312
1 63
     0.008014248615356     0.015759554173780    -0.016810367821295
     0.015759554173780     0.026211814304437     0.009705470386801
    -0.006192386761745     0.003575176163820    -0.040724094659312
1 64
    -0.007696782113385     0.167922708474845    -0.159379198092335
     0.047242669860454     0.151120346298310    -0.044536174142541
    -0.034673503889346     0.095442231885030    -0.176813589740232
1 65
    -0.047779887974480    -0.000000000000000     0.000000000000000
    -0.000000000000000    -0.047779887974480    -0.000000000000000
     0.000000000000000     0.000000000000000    -0.000147496364515
1 66
     0.009755244492898    -0.016927706608934     0.010626164758393
    -0.074198156193183    -0.067002097128604    -0.033866259001408
     0.081809153354221     0.018054864689556     0.031008497514795
1 67
     0.051045564057419     0.000000000000000     0.000000000000000
    -0.000000000000000     0.008145414949899    -0.014434315016557
     0.000000000000000     0.006839737474106    -0.032070200348610
1 68
     0.009755244492898     0.016927706608934    -0.010626164758393
     0.074198156193183    -0.067002097128604    -0.033866259001408
    -0.081809153354221     0.018054864689556     0.031008497514795
1 69
    -0.087271417787433     0.018179786607063     0.024015958247166
    -0.039090662977186     0.030024565151727     0.026135658126271
    -0.056540548160157     0.061821372722075     0.031008497514795
1 70
    -0.087271417787433    -0.018179786607063    -0.024015958247166
     0.039090662977186     0.030024565151727     0.026135658126271
     0.056540548160157     0.061821372722075     0.031008497514795
1 71
     0.279256455596399     0.145855960709389     0.064474729068534
     0.145855960709389     0.110836499239444     0.037224502183646
     0.187284933685811     0.108129006878664     0.033225782102097
1 72
     0.279256455596399    -0.145855960709389    -0.064474729068534
    -0.145855960709389     0.110836499239444     0.037224502183646
    -0.187284933685811     0.108129006878664     0.033225782102097
1 73
     0.018870452226779    -0.018576309476626     0.012500483490566
    -0.018576309476626     0.040320526780539     0.007217157508279
    -0.005923386407793    -0.003419868737053    -0.032070200348610
1 74
     0.013488788404511     0.000000000000000     0.000000000000000
     0.000000000000000     0.018428050912049     0.003932709392587
    -0.000000000000000    -0.001321803220312    -0.006614689323602
1 75
     0.018870452226779     0.018576309476626    -0.012500483490566
     0.018576309476626     0.040320526780539     0.007217157508279
     0.005923386407793    -0.003419868737053    -0.032070200348610
1 76
     0.026626521060966     0.000000000000000    -0.000000000000000
     0.000000000000000     0.363466433774876    -0.074449004367292
    -0.000000000000000    -0.216258013757328     0.033225782102097
1 77
    -0.008354105659024    -0.084653594378244     0.034642123005559
    -0.027383144793996    -0.048892746976682     0.007730600875137
     0.025268605194065    -0.079876237411631     0.031008497514795
1 78
     0.017193235285165    -0.002138763403744     0.003405826239682
    -0.002138763403744     0.014723604031396    -0.001966354696294
    -0.001144715167595     0.000660901610156    -0.006614689323602
1 79
     0.017193235285165     0.002138763403744    -0.003405826239682
     0.002138763403744     0.014723604031396    -0.001966354696294
     0.001144715167595     0.000660901610156    -0.006614689323602
1 80
    -0.008354105659024     0.084653594378244    -0.034642123005559
     0.027383144793996    -0.048892746976682     0.007730600875137
    -0.025268605194065    -0.079876237411631     0.031008497514795
2 1
    -0.791681556658930     0.133185613768772     0.152795157845790
    -0.133190178533979     0.331020288528763     0.358057068811300
    -0.152783779917279     0.358056506616631     0.563074630216903
2 2
     4.298123218293282     0.000000000000000    -0.000000000000000
     0.000000000000001     4.298123218293282    -0.000000000000000
     0.000000000000000     0.000000000000000     3.905841356928433
2 3
    -0.791681556658930    -0.133185613768772    -0.152795157845790
     0.133190178533979     0.331020288528763     0.358057068811300
     0.152783779917279     0.358056506616631     0.563074630216903
2 4
    -0.183816280583883     0.000000000000000     0.000000000000000
     0.000000000000000     0.052166282780247     0.026047955527952
     0.000000000000000     0.026056575367021     0.070458742338311
2 5
    -0.064430124069476     0.049167325090767     0.016933760198050
     0.049167325090767    -0.007656587316500    -0.009776711008737
    -0.022656841024321     0.013080933264378     0.018766492824800
2 6
     0.050346803833156     0.352955122061425    -0.233688938672283
     0.619330914364177    -0.511008071963322    -0.311353022675357
    -0.386477920678953    -0.046713618613741     0.563074630216903
2 7
     0.050346803833156    -0.352955122061426     0.233688938672283
    -0.619330914364177    -0.511008071963322    -0.311353022675357
     0.386477920678953    -0.046713618613741     0.563074630216903
2 8
    -0.064430124069476    -0.049167325090767    -0.016933760198050
    -0.049167325090767    -0.007656587316500    -0.009776711008737
     0.022656841024321     0.013080933264378     0.018766492824800
2 9
     0.020730181059989    -0.000000000000000     0.000000000000000
    -0.000000000000000    -0.092816892445965     0.019553422017474
    -0.000000000000000    -0.026161866528756     0.018766492824800
2 10
    -0.006829358060786     0.102183447361754    -0.022558191203854
     0.102183447361754    -0.124820639742851    -0.013023977763976
    -0.022565656203464    -0.013028287683511     0.070458742338311
2 11
     0.020726379959884    -0.000000000000000    -0.000000000000000
    -0.000000000000000    -0.092817024170617    -0.026166027634427
     0.000000000000000     0.019550650364955     0.018766492824800
2 12
    -0.006829358060786    -0.102183447361754     0.022558191203854
    -0.102183447361754    -0.124820639742851    -0.013023977763976
     0.022565656203464    -0.013028287683511     0.070458742338311
2 13
     0.050342850630524    -0.619333196746781     0.386484096518073
    -0.352957404444029    -0.511004118760691    -0.046704046135943
     0.233694140761674    -0.311342888002890     0.563074630216903
2 14
     0.050342850630524     0.619333196746781    -0.386484096518073
     0.352957404444029    -0.511004118760691    -0.046704046135943
    -0.233694140761674    -0.311342888002890     0.563074630216903
2 15
    -0.064431173137992     0.049165736204588    -0.022660444647539
     0.049165736204588    -0.007659471072741     0.013083013817213
     0.016931359876559    -0.009775325182477     0.018766492824800
2 16
    -0.064431173137992    -0.049165736204588     0.022660444647539
    -0.049165736204588    -0.007659471072741     0.013083013817213
    -0.016931359876559    -0.009775325182477     0.018766492824800
2 17
     0.078555467863000    -0.257596017979856     0.179679947885591
    -0.257596017979856     0.376001728508691     0.103738266279724
     0.179671252287394     0.103733245873764    -0.248197474958073
2 18
     0.078555467863000     0.257596017979856    -0.179679947885591
     0.257596017979856     0.376001728508691     0.103738266279724
    -0.179671252287394     0.103733245873764    -0.248197474958073
2 19
    -0.058299573172731     0.007001566094061    -0.033742325474665
     0.007003860241836    -0.016734790368720     0.011955368434942
    -0.033738139056343     0.011954254547509     0.050129697804128
2 20
    -0.058299573172731    -0.007001566094061     0.033742325474665
    -0.007003860241836    -0.016734790368720     0.011955368434942
     0.033738139056343     0.011954254547509     0.050129697804128
2 21
    -0.442303289369732     0.274503095469811     0.371860379261747
     0.274503095469811    -0.125334417243971    -0.214693690067726
     0.371861679414949    -0.214694440711527    -0.278325639840563
2 22
     0.524724858831536    -0.000000000000000    -0.000000000000000
    -0.000000000000000    -0.070167662459846    -0.207476532559447
    -0.000000000000000    -0.207466491747529    -0.248197474958073
2 23
    -0.442303289369733    -0.274503095469811    -0.371860379261747
    -0.274503095469811    -0.125334417243971    -0.214693690067726
    -0.371861679414949    -0.214694440711527    -0.278325639840563
2 24
    -0.272210031453270     0.000000000000000     0.000000000000000
     0.000000000000000     0.090830775537199     0.101615238980608
     0.000000000000000     0.101615388856871     0.212667110551618
2 25
     0.000070573789582     0.157201280732075    -0.088001378368833
     0.157201280732075    -0.181449829705653    -0.050807619490304
    -0.088001508165484    -0.050807694428435     0.212667110551618
2 26
    -0.021061458570864     0.014495575247666     0.006517509961070
     0.014497869395441    -0.053972904970588    -0.035199395261294
     0.006516381406723    -0.035195212772959     0.050129697804128
2 27
    -0.021061458570864    -0.014495575247666    -0.006517509961070
    -0.014497869395441    -0.053972904970588    -0.035199395261294
    -0.006516381406723    -0.035195212772959     0.050129697804128
2 28
     0.000070573789582    -0.157201280732075     0.088001378368833
    -0.157201280732075    -0.181449829705653    -0.050807619490304
     0.088001508165484    -0.050807694428435     0.212667110551618
2 29
     0.033150018818910    -0.000000000000000     0.000000000000000
    -0.000000000000000    -0.600787725432613     0.429387380135452
     0.000000000000000     0.429388881423055    -0.278325639840563
2 30
    -0.033190513568583     0.021500582563390    -0.027224815513595
     0.021498288415615    -0.041843849972869     0.023244026826352
    -0.027221757649620     0.023240958225450     0.050129697804128
2 31
    -0.038079575710997    -0.000000000000000     0.000000000000000
    -0.000000000000000    -0.038079575710997    -0.000000000000000
    -0.000000000000000     0.000000000000000     0.000567338378471
2 32
    -0.033190513568583    -0.021500582563390     0.027224815513595
    -0.021498288415615    -0.041843849972869     0.023244026826352
     0.027221757649620     0.023240958225450     0.050129697804128
2 33
    -1.014401032613142    -0.352714314809809    -1.173079527337705
    -0.352714314809809    -0.607121623408187    -0.677277780889263
    -0.691491117880022    -0.399232583050266    -1.440904760226627
2 34
    -1.014401032613142     0.352714314809809     1.173079527337705
     0.352714314809809    -0.607121623408187    -0.677277780889263
     0.691491117880022    -0.399232583050266    -1.440904760226627
2 35
     0.129149679072589    -0.032986219566971    -0.003202794161595
     0.010421678219156    -0.037614821527165    -0.053504545345411
     0.014515665575740    -0.057187431401274    -0.080441749230306
2 36
     0.129149679072589     0.032986219566971     0.003202794161595
    -0.010421678219156    -0.037614821527165    -0.053504545345411
    -0.014515665575740    -0.057187431401274    -0.080441749230306
2 37
     0.024859028172883    -0.034149467635661    -0.015464850151259
    -0.034149467635661    -0.014573380491380     0.008928635397807
    -0.001031380893823     0.000595468036686    -0.043434969442826
2 38
    -0.403481918805710    -0.000000000000000     0.000000000000000
    -0.000000000000000    -1.218040737215619     1.354555561778526
     0.000000000000000     0.798465166100532    -1.440904760226627
2 39
     0.024859028172883     0.034149467635661     0.015464850151259
     0.034149467635661    -0.014573380491380     0.008928635397807
     0.001031380893823     0.000595468036686    -0.043434969442826
2 40
     0.014452218010985    -0.000000000000000     0.000000000000000
    -0.000000000000000    -0.012196743012766     0.001163691434007
     0.000000000000000     0.007977328962383    -0.003950463652749
2 41
    -0.005534502756828    -0.011539338615515    -0.001007786344017
    -0.011539338615515     0.007789977755047    -0.000581845717004
    -0.006908569535769    -0.003988664481192    -0.003950463652749
2 42
    -0.005694429393203    -0.088273960540516     0.047937692567860
    -0.044866062754389     0.097229286938627     0.023978571565672
     0.042267935582813     0.041164650842067    -0.080441749230306
2 43
    -0.005694429393203     0.088273960540516    -0.047937692567860
     0.044866062754389     0.097229286938627     0.023978571565672
    -0.042267935582813     0.041164650842067    -0.080441749230306
2 44
    -0.005534502756828     0.011539338615515     0.001007786344017
     0.011539338615515     0.007789977755047    -0.000581845717004
     0.006908569535769    -0.003988664481192    -0.003950463652749
2 45
    -0.034289584823511     0.000000000000000    -0.000000000000000
     0.000000000000000     0.044575232505015    -0.017857270795613
    -0.000000000000000    -0.001190936073372    -0.043434969442826
2 46
     0.013847036638749    -0.056148333428296     0.044734898406265
    -0.099556231214423     0.077687820906675     0.029525973779739
     0.056783601158553     0.016022780559207    -0.080441749230306
2 47
     0.035462280835121     0.000000000000000    -0.000000000000000
     0.000000000000000     0.035462280835121     0.000000000000000
     0.000000000000000    -0.000000000000000    -0.004782598654129
2 48
     0.013847036638749     0.056148333428297    -0.044734898406265
     0.099556231214423     0.077687820906674     0.029525973779739
    -0.056783601158553     0.016022780559207    -0.080441749230306
2 49
     0.019015445226355     0.024953361677657    -0.048830443787730
     0.024953361677657    -0.009798214937208    -0.028192269865495
     0.001382385638774     0.000798120720670    -0.075010998900875
2 50
    -0.144870723761342    -0.000000000000000     0.000000000000000
    -0.000000000000000    -0.344627654165149     0.034650757324236
     0.000000000000000     0.152608077588133    -0.230011289352193
2 51
     0.019015445226355    -0.024953361677657     0.048830443787730
    -0.024953361677657    -0.009798214937208    -0.028192269865495
    -0.001382385638774     0.000798120720670    -0.075010998900875
2 52
     0.035310597148977    -0.000000000000000    -0.000000000000000
    -0.000000000000000    -0.001084534229184    -0.019410940773603
    -0.000000000000000    -0.007150352327640    -0.040724094659312
2 53
     0.204585406022015    -0.075318508603682    -0.118259057240975
     0.045361530010708    -0.061161841837091    -0.115758347311484
     0.065318645461648    -0.077749251148908    -0.176813589740232
2 54
    -0.294688421564197     0.086497288155848     0.030008436103159
     0.086497288155848    -0.194809956362294    -0.017325378662118
     0.132162472014030    -0.076304038794067    -0.230011289352193
2 55
    -0.294688421564197    -0.086497288155848    -0.030008436103158
    -0.086497288155848    -0.194809956362294    -0.017325378662118
    -0.132162472014030    -0.076304038794067    -0.230011289352193
2 56
     0.204585406022015     0.075318508603682     0.118259057240975
    -0.045361530010708    -0.061161841837091    -0.115758347311484
    -0.065318645461648    -0.077749251148908    -0.176813589740232
2 57
     0.042403716531471     0.000000000000000     0.000000000000000
     0.000000000000000     0.042403716531471     0.000000000000000
     0.000000000000000    -0.000000000000000    -0.087143058794224
2 58
     0.018246722368756    -0.062221159156941     0.041120140851360
    -0.182901197771332     0.125176841816168     0.160294521454024
     0.099992149350995    -0.017692980736123    -0.176813589740232
2 59
    -0.024205045018989     0.000000000000000    -0.000000000000000
     0.000000000000000     0.033422275308137     0.056384539730990
    -0.000000000000000    -0.001596241441341    -0.075010998900875
2 60
     0.018246722368756     0.062221159156941    -0.041120140851360
     0.182901197771332     0.125176841816168     0.160294521454024
    -0.099992149350995    -0.017692980736123    -0.176813589740232
2 61
    -0.007696782113385     0.167922708474845    -0.159379198092335
     0.047242669860454     0.151120346298310    -0.044536174142541
    -0.034673503889346     0.095442231885030    -0.176813589740232
2 62
    -0.007696782113385    -0.167922708474845     0.159379198092335
    -0.047242669860454     0.151120346298310    -0.044536174142541
     0.034673503889346     0.095442231885030    -0.176813589740232
2 63
     0.008014248615356    -0.015759554173780     0.016810367821295
    -0.015759554173780     0.026211814304437     0.009705470386801
     0.006192386761745     0.003575176163820    -0.040724094659312
2 64
     0.008014248615356     0.015759554173780    -0.016810367821295
     0.015759554173780     0.026211814304437     0.009705470386801
    -0.006192386761745     0.003575176163820    -0.040724094659312
2 65
     0.009755244492898     0.016927706608934    -0.010626164758393
     0.074198156193183    -0.067002097128604    -0.033866259001408
    -0.081809153354221     0.018054864689556     0.031008497514795
2 66
    -0.047779887974480    -0.000000000000000     0.000000000000000