  371

    1
0.0000000000e+00 0.0000000000e+00 0.0000000000e+00
0.0000000000e+00 0.0000000000e+00 0.0000000000e+00
     1      1      1
 1  1  1     0.0000000000e+00
 1  1  2    -4.7818360749e+00
 1  1  3    -2.5219310634e+00
 1  2  1    -4.7818360749e+00
 1  2  2     0.0000000000e+00
 1  2  3     0.0000000000e+00
 1  3  1    -2.5219310634e+00
 1  3  2     0.0000000000e+00
 1  3  3     0.0000000000e+00
 2  1  1    -4.7818360749e+00
 2  1  2     0.0000000000e+00
 2  1  3     0.0000000000e+00
 2  2  1     0.0000000000e+00
 2  2  2     4.7818360749e+00
 2  2  3    -2.5219310634e+00
 2  3  1     0.0000000000e+00
 2  3  2    -2.5219310634e+00
 2  3  3     0.0000000000e+00
 3  1  1    -2.5219310634e+00
 3  1  2     0.0000000000e+00
 3  1  3     0.0000000000e+00
 3  2  1     0.0000000000e+00
 3  2  2    -2.5219310634e+00
 3  2  3     0.0000000000e+00
 3  3  1     0.0000000000e+00
 3  3  2     0.0000000000e+00
 3  3  3    -1.2668887403e+01

    2
0.0000000000e+00 0.0000000000e+00 0.0000000000e+00
0.0000000000e+00 0.0000000000e+00 0.0000000000e+00
     1      1      3
 1  1  1    -3.9514369012e+00
 1  1  2     2.7339242290e+00
 1  1  3     2.8482319616e+00
 1  2  1     2.6467300821e+00
 1  2  2    -1.2668040696e+00
 1  2  3    -1.8842908271e+00
 1  3  1     3.0179785607e+00
 1  3  2    -1.8009734189e+00
 1  3  3    -2.8152115663e+00
 2  1  1     2.6467300821e+00
 2  1  2    -1.2668040696e+00
 2  1  3    -1.8842908271e+00
 2  2  1    -1.4178287621e+00
 2  2  2     3.6602274706e-01
 2  2  3     6.7244032903e-01
 2  3  1    -1.8009734189e+00
 2  3  2     9.3839358427e-01
 2  3  3     1.6253631556e+00
 3  1  1     3.0179785607e+00
 3  1  2    -1.8009734189e+00
 3  1  3    -2.8152115663e+00
 3  2  1    -1.8009734189e+00
 3  2  2     9.3839358427e-01
 3  2  3     1.6253631556e+00
 3  3  1    -2.7991580587e+00
 3  3  2     1.6160946587e+00
 3  3  3     1.9929508685e+00

    3
0.0000000000e+00 0.0000000000e+00 0.0000000000e+00
0.0000000000e+00 0.0000000000e+00 0.0000000000e+00
     1      1      4
 1  1  1     0.0000000000e+00
 1  1  2     8.1536631498e-02
 1  1  3     8.5262788524e-02
 1  2  1     3.5691804016e-02
 1  2  2     0.0000000000e+00
 1  2  3     0.0000000000e+00
 1  3  1     1.1436449930e-01
 1  3  2     0.0000000000e+00
 1  3  3     0.0000000000e+00
 2  1  1     3.5691804016e-02
 2  1  2     0.0000000000e+00
 2  1  3     0.0000000000e+00
 2  2  1     0.0000000000e+00
 2  2  2     2.2594773871e+00
 2  2  3    -2.4017692530e+00
 2  3  1     0.0000000000e+00
 2  3  2    -2.1606082876e+00
 2  3  3     1.4039811862e+00
 3  1  1     1.1436449930e-01
 3  1  2     0.0000000000e+00
 3  1  3     0.0000000000e+00
 3  2  1     0.0000000000e+00
 3  2  2    -2.1606082876e+00
 3  2  3     1.4039811862e+00
 3  3  1     0.0000000000e+00
 3  3  2     1.1458317717e+00
 3  3  3    -4.9449865730e-01

    4
0.0000000000e+00 0.0000000000e+00 0.0000000000e+00
4.4295974345e+00 0.0000000000e+00 0.0000000000e+00
     1      1      1
 1  1  1    -6.4917500000e-01
 1  1  2     1.1385967881e-01
 1  1  3     1.6731345926e-01
 1  2  1     1.1493321888e-01
 1  2  2     1.5875969484e-01
 1  2  3     1.6939124799e-01
 1  3  1     1.7249524133e-03
 1  3  2     1.8247501933e-01
 1  3  3     3.4007947990e-01
 2  1  1     1.1493321888e-01
 2  1  2     1.5875969484e-01
 2  1  3     1.6939124799e-01
 2  2  1     1.1318019761e-01
 2  2  2    -6.6776712421e-02
 2  2  3     7.1277668624e-02
 2  3  1    -7.0665092704e-02
 2  3  2    -1.1615708092e-01
 2  3  3    -1.8902962368e-02
 3  1  1     1.7249524133e-03
 3  1  2     1.8247501933e-01
 3  1  3     3.4007947990e-01
 3  2  1    -7.0665092704e-02
 3  2  2    -1.1615708092e-01
 3  2  3    -1.8902962368e-02
 3  3  1     7.2673340802e-02
 3  3  2     8.9099800688e-02
 3  3  3     1.3622544876e+00

    5
0.0000000000e+00 0.0000000000e+00 0.0000000000e+00
-4.4295974345e+00 0.0000000000e+00 0.0000000000e+00
     1      1      1
 1  1  1     6.4917500000e-01
 1  1  2     1.1385967881e-01
 1  1  3     1.6731345926e-01
 1  2  1     1.1493321888e-01
 1  2  2    -1.5875969484e-01
 1  2  3    -1.6939124799e-01
 1  3  1     1.7249524133e-03
 1  3  2    -1.8247501933e-01
 1  3  3    -3.4007947990e-01
 2  1  1     1.1493321888e-01
 2  1  2    -1.5875969484e-01
 2  1  3    -1.6939124799e-01
 2  2  1    -1.1318019761e-01
 2  2  2    -6.6776712421e-02
 2  2  3     7.1277668624e-02
 2  3  1     7.0665092704e-02
 2  3  2    -1.1615708092e-01
 2  3  3    -1.8902962368e-02
 3  1  1     1.7249524133e-03
 3  1  2    -1.8247501933e-01
 3  1  3    -3.4007947990e-01
 3  2  1     7.0665092704e-02
 3  2  2    -1.1615708092e-01
 3  2  3    -1.8902962368e-02
 3  3  1    -7.2673340802e-02
 3  3  2     8.9099800688e-02
 3  3  3     1.3622544876e+00

    6
0.0000000000e+00 0.0000000000e+00 0.0000000000e+00
-4.4295974345e+00 0.0000000000e+00 0.0000000000e+00
     1      1      3
 1  1  1     3.9514369012e+00
 1  1  2     2.7339242290e+00
 1  1  3     2.8482319616e+00
 1  2  1     2.6467300821e+00
 1  2  2     1.2668040696e+00
 1  2  3     1.8842908271e+00
 1  3  1     3.0179785607e+00
 1  3  2     1.8009734189e+00
 1  3  3     2.8152115663e+00
 2  1  1     2.6467300821e+00
 2  1  2     1.2668040696e+00
 2  1  3     1.8842908271e+00
 2  2  1     1.4178287621e+00
 2  2  2     3.6602274706e-01
 2  2  3     6.7244032903e-01
 2  3  1     1.8009734189e+00
 2  3  2     9.3839358427e-01
 2  3  3     1.6253631556e+00
 3  1  1     3.0179785607e+00
 3  1  2     1.8009734189e+00
 3  1  3     2.8152115663e+00
 3  2  1     1.8009734189e+00
 3  2  2     9.3839358427e-01
 3  2  3     1.6253631556e+00
 3  3  1     2.7991580587e+00
 3  3  2     1.6160946587e+00
 3  3  3     1.9929508685e+00

    7
0.0000000000e+00 0.0000000000e+00 0.0000000000e+00
-2.2147987173e+00 3.8361439068e+00 0.0000000000e+00
     1      1      1
 1  1  1    -1.1141161045e-01
 1  1  2    -3.8774058573e-02
 1  1  3     2.4198374022e-01
 1  2  1     1.6217388773e-04
 1  2  2     3.1491450508e-01
 1  2  3    -1.2628034118e-01
 1  3  1    -3.8271454162e-02
 1  3  2     4.7573156601e-02
 1  3  3    -1.5366929433e-01
 2  1  1     1.6217388773e-04
 2  1  2     3.1491450508e-01
 2  1  3    -1.2628034118e-01
 2  2  1     3.3863396667e-01
 2  2  2    -4.4895253979e-01
 2  2  3    -3.3926123429e-03
 2  3  1    -2.0556695543e-01
 2  3  2    -7.6160674346e-02
 2  3  3     3.0396895009e-01
 3  1  1    -3.8271454162e-02
 3  1  2     4.7573156601e-02
 3  1  3    -1.5366929433e-01
 3  2  1    -2.0556695543e-01
 3  2  2    -7.6160674346e-02
 3  2  3     3.0396895009e-01
 3  3  1    -1.1349936127e-01
 3  3  2     1.8387058968e-02
 3  3  3     1.3622544876e+00

    8
0.0000000000e+00 0.0000000000e+00 0.0000000000e+00
-2.2147987173e+00 3.8361439068e+00 0.0000000000e+00
     1      1      3
 1  1  1     0.0000000000e+00
 1  1  2     2.7817277665e-01
 1  1  3    -4.1545548726e-01
 1  2  1     4.5256107039e-01
 1  2  2     0.0000000000e+00
 1  2  3     0.0000000000e+00
 1  3  1    -1.0139890395e-01
 1  3  2     0.0000000000e+00
 1  3  3     0.0000000000e+00
 2  1  1     4.5256107039e-01
 2  1  2     0.0000000000e+00
 2  1  3     0.0000000000e+00
 2  2  1     0.0000000000e+00
 2  2  2    -6.4780667288e+00
 2  2  3     3.9361277779e+00
 2  3  1     0.0000000000e+00
 2  3  2     4.0577710489e+00
 2  3  3    -3.2507263112e+00
 3  1  1    -1.0139890395e-01
 3  1  2     0.0000000000e+00
 3  1  3     0.0000000000e+00
 3  2  1     0.0000000000e+00
 3  2  2     4.0577710489e+00
 3  2  3    -3.2507263112e+00
 3  3  1     0.0000000000e+00
 3  3  2    -3.2321893174e+00
 3  3  3     1.9929508685e+00

    9
0.0000000000e+00 0.0000000000e+00 0.0000000000e+00
-2.2147987173e+00 3.8361439068e+00 0.0000000000e+00
     1      1      4
 1  1  1     1.5006818154e+00
 1  1  2    -8.3072724609e-01
 1  1  3    -1.7800112426e+00
 1  2  1    -8.0780483235e-01
 1  2  2     4.8699301007e-01
 1  2  3     1.0769164640e+00
 1  3  1    -1.5918650909e+00
 1  3  2     9.8509211318e-01
 1  3  3     1.2158833737e+00
 2  1  1    -8.0780483235e-01
 2  1  2     4.8699301007e-01
 2  1  3     1.0769164640e+00
 2  2  1     5.2669579530e-01
 2  2  2    -3.3977976321e-01
 2  2  3    -5.3649522186e-01
 2  3  1     9.8509211318e-01
 2  3  2    -4.5437869742e-01
 2  3  3    -7.0199059310e-01
 3  1  1    -1.5918650909e+00
 3  1  2     9.8509211318e-01
 3  1  3     1.2158833737e+00
 3  2  1     9.8509211318e-01
 3  2  2    -4.5437869742e-01
 3  2  3    -7.0199059310e-01
 3  3  1     9.9231942279e-01
 3  3  2    -5.7291588587e-01
 3  3  3    -4.9449865730e-01

   10
0.0000000000e+00 0.0000000000e+00 0.0000000000e+00
2.2147987173e+00 3.8361439068e+00 0.0000000000e+00
     1      1      1
 1  1  1     1.1141161045e-01
 1  1  2    -3.8774058573e-02
 1  1  3     2.4198374022e-01
 1  2  1     1.6217388773e-04
 1  2  2    -3.1491450508e-01
 1  2  3     1.2628034118e-01
 1  3  1    -3.8271454162e-02
 1  3  2    -4.7573156601e-02
 1  3  3     1.5366929433e-01
 2  1  1     1.6217388773e-04
 2  1  2    -3.1491450508e-01
 2  1  3     1.2628034118e-01
 2  2  1    -3.3863396667e-01
 2  2  2    -4.4895253979e-01
 2  2  3    -3.3926123429e-03
 2  3  1     2.0556695543e-01
 2  3  2    -7.6160674346e-02
 2  3  3     3.0396895009e-01
 3  1  1    -3.8271454162e-02
 3  1  2    -4.7573156601e-02
 3  1  3     1.5366929433e-01
 3  2  1     2.0556695543e-01
 3  2  2    -7.6160674346e-02
 3  2  3     3.0396895009e-01
 3  3  1     1.1349936127e-01
 3  3  2     1.8387058968e-02
 3  3  3     1.3622544876e+00

   11
0.0000000000e+00 0.0000000000e+00 0.0000000000e+00
2.2147987173e+00 3.8361439068e+00 0.0000000000e+00
     1      1      4
 1  1  1    -1.5006818154e+00
 1  1  2    -8.3072724609e-01
 1  1  3    -1.7800112426e+00
 1  2  1    -8.0780483235e-01
 1  2  2    -4.8699301007e-01
 1  2  3    -1.0769164640e+00
 1  3  1    -1.5918650909e+00
 1  3  2    -9.8509211318e-01
 1  3  3    -1.2158833737e+00
 2  1  1    -8.0780483235e-01
 2  1  2    -4.8699301007e-01
 2  1  3    -1.0769164640e+00
 2  2  1    -5.2669579530e-01
 2  2  2    -3.3977976321e-01
 2  2  3    -5.3649522186e-01
 2  3  1    -9.8509211318e-01
 2  3  2    -4.5437869742e-01
 2  3  3    -7.0199059310e-01
 3  1  1    -1.5918650909e+00
 3  1  2    -9.8509211318e-01
 3  1  3    -1.2158833737e+00
 3  2  1    -9.8509211318e-01
 3  2  2    -4.5437869742e-01
 3  2  3    -7.0199059310e-01
 3  3  1    -9.9231942279e-01
 3  3  2    -5.7291588587e-01
 3  3  3    -4.9449865730e-01

   12
0.0000000000e+00 0.0000000000e+00 0.0000000000e+00
2.2147987173e+00 -3.8361439068e+00 0.0000000000e+00
     1      1      1
 1  1  1     4.9319330012e-02
 1  1  2     2.3279150151e-01
 1  1  3    -5.1410507658e-02
 1  2  1     1.9278172898e-01
 1  2  2    -3.3623174054e-01
 1  2  3     4.3110906817e-02
 1  3  1    -1.3510169101e-01
 1  3  2    -1.4966199212e-01
 1  3  3     1.8641018557e-01
 2  1  1     1.9278172898e-01
 2  1  2    -3.3623174054e-01
 2  1  3     4.3110906817e-02
 2  2  1    -3.5809177619e-01
 2  2  2     2.0785213047e-01
 2  2  3     2.9000163554e-01
 2  3  1     1.0347811991e-01
 2  3  2     2.0669562505e-02
 2  3  3    -2.8506598772e-01
 3  1  1    -1.3510169101e-01
 3  1  2    -1.4966199212e-01
 3  1  3     1.8641018557e-01
 3  2  1     1.0347811991e-01
 3  2  2     2.0669562505e-02
 3  2  3    -2.8506598772e-01
 3  3  1    -4.0826020467e-02
 3  3  2    -1.0748685966e-01
 3  3  3     1.3622544876e+00

   13
0.0000000000e+00 0.0000000000e+00 0.0000000000e+00
-2.2147987173e+00 -3.8361439068e+00 0.0000000000e+00
     1      1      1
 1  1  1    -4.9319330012e-02
 1  1  2     2.3279150151e-01
 1  1  3    -5.1410507658e-02
 1  2  1     1.9278172898e-01
 1  2  2     3.3623174054e-01
 1  2  3    -4.3110906817e-02
 1  3  1    -1.3510169101e-01
 1  3  2     1.4966199212e-01
 1  3  3    -1.8641018557e-01
 2  1  1     1.9278172898e-01
 2  1  2     3.3623174054e-01
 2  1  3    -4.3110906817e-02
 2  2  1     3.5809177619e-01
 2  2  2     2.0785213047e-01
 2  2  3     2.9000163554e-01
 2  3  1    -1.0347811991e-01
 2  3  2     2.0669562505e-02
 2  3  3    -2.8506598772e-01
 3  1  1    -1.3510169101e-01
 3  1  2     1.4966199212e-01
 3  1  3    -1.8641018557e-01
 3  2  1    -1.0347811991e-01
 3  2  2     2.0669562505e-02
 3  2  3    -2.8506598772e-01
 3  3  1     4.0826020467e-02
 3  3  2    -1.0748685966e-01
 3  3  3     1.3622544876e+00

   14
0.0000000000e+00 0.0000000000e+00 0.0000000000e+00
0.0000000000e+00 0.0000000000e+00 0.0000000000e+00
     1      3      1
 1  1  1    -3.9514369012e+00
 1  1  2     2.6467300821e+00
 1  1  3     3.0179785607e+00
 1  2  1     2.7339242290e+00
 1  2  2    -1.2668040696e+00
 1  2  3    -1.8009734189e+00
 1  3  1     2.8482319616e+00
 1  3  2    -1.8842908271e+00
 1  3  3    -2.8152115663e+00
 2  1  1     2.6467300821e+00
 2  1  2    -1.4178287621e+00
 2  1  3    -1.8009734189e+00
 2  2  1    -1.2668040696e+00
 2  2  2     3.6602274706e-01
 2  2  3     9.3839358427e-01
 2  3  1    -1.8842908271e+00
 2  3  2     6.7244032903e-01
 2  3  3     1.6253631556e+00
 3  1  1     3.0179785607e+00
 3  1  2    -1.8009734189e+00
 3  1  3    -2.7991580587e+00
 3  2  1    -1.8009734189e+00
 3  2  2     9.3839358427e-01
 3  2  3     1.6160946587e+00
 3  3  1    -2.8152115663e+00
 3  3  2     1.6253631556e+00
 3  3  3     1.9929508685e+00

   15
0.0000000000e+00 0.0000000000e+00 0.0000000000e+00
0.0000000000e+00 0.0000000000e+00 0.0000000000e+00
     1      3      3
 1  1  1     3.7656335492e+00
 1  1  2    -2.6020617877e+00
 1  1  3    -2.9432003790e+00
 1  2  1    -2.6020617877e+00
 1  2  2     1.2799930357e+00
 1  2  3     1.8327980917e+00
 1  3  1    -2.9432003790e+00
 1  3  2     1.8327980917e+00
 1  3  3     2.8275163476e+00
 2  1  1    -2.6235235016e+00
 2  1  2     1.2428202568e+00
 2  1  3     1.8327980917e+00
 2  2  1     1.2428202568e+00
 2  2  2    -2.8957036546e-01
 2  2  3    -8.2686743576e-01
 2  3  1     1.8327980917e+00
 2  3  2    -8.2686743576e-01
 2  3  3    -1.6324673244e+00
 3  1  1    -2.6745659536e+00
 3  1  2     1.5761722166e+00
 3  1  3     2.8599587443e+00
 3  2  1     1.5761722166e+00
 3  2  2    -8.5455904653e-01
 3  2  3    -1.6511979509e+00
 3  3  1     2.8599587443e+00
 3  3  2    -1.6511979509e+00
 3  3  3     2.3334398983e-01

   16
0.0000000000e+00 0.0000000000e+00 0.0000000000e+00
4.4295974345e+00 0.0000000000e+00 0.0000000000e+00
     1      3      1
 1  1  1     0.0000000000e+00
 1  1  2    -1.7836102858e-01
 1  1  3    -1.8690415697e-01
 1  2  1    -2.1604820145e-01
 1  2  2    -3.8216729088e-03
 1  2  3    -1.2664109634e-01
 1  3  1    -2.0379467218e-01
 1  3  2    -9.9077368748e-02
 1  3  3    -4.8848516586e-02
 2  1  1    -1.7836102858e-01
 2  1  2     0.0000000000e+00
 2  1  3    -2.9014356754e-02
 2  2  1     3.8216729088e-03
 2  2  2    -1.4221645069e-01
 2  2  3     6.2333726351e-02
 2  3  1     9.9077368748e-02
 2  3  2     2.9708571751e-01
 2  3  3     1.2731323370e-01
 3  1  1    -1.8690415697e-01
 3  1  2     2.9014356754e-02
 3  1  3     0.0000000000e+00
 3  2  1     1.2664109634e-01
 3  2  2     6.2333726351e-02
 3  2  3     2.4910094704e-01
 3  3  1     4.8848516586e-02
 3  3  2     1.2731323370e-01
 3  3  3    -2.5655658374e+00

   17
0.0000000000e+00 0.0000000000e+00 0.0000000000e+00
-4.4295974345e+00 0.0000000000e+00 0.0000000000e+00
     1      3      3
 1  1  1     0.0000000000e+00
 1  1  2     7.0200905222e-02
 1  1  3     1.2447884805e-01
 1  2  1     7.0200905222e-02
 1  2  2     0.0000000000e+00
 1  2  3     2.9560502188e-03
 1  3  1     1.2447884805e-01
 1  3  2    -2.9560502188e-03
 1  3  3     0.0000000000e+00
 2  1  1     1.7153685748e-01
 2  1  2     4.1372080403e-02
 2  1  3     9.1985238284e-02
 2  2  1    -4.1372080403e-02
 2  2  2    -5.6934922996e-02
 2  2  3    -9.3058891252e-02
 2  3  1    -9.1985238284e-02
 2  3  2    -9.3058891252e-02
 2  3  3    -1.9782669768e-01
 3  1  1    -4.4655803390e-02
 3  1  2     8.5761038547e-02
 3  1  3     5.4207215312e-02
 3  2  1    -8.5761038547e-02
 3  2  2    -4.4389075402e-02
 3  2  3    -8.5097081203e-02
 3  3  1    -5.4207215312e-02
 3  3  2    -8.5097081203e-02
 3  3  3     1.4524116479e+00

   18
0.0000000000e+00 0.0000000000e+00 0.0000000000e+00
-2.2147987173e+00 3.8361439068e+00 0.0000000000e+00
     1      3      3
 1  1  1    -3.0556385454e-02
 1  1  2     1.3905641662e-01
 1  1  3    -7.9785240281e-02
 1  2  1     6.7397871348e-02
 1  2  2    -6.8691801134e-02
 1  2  3    -2.5946688102e-02
 1  3  1     2.4363274304e-03
 1  3  2    -1.6244652042e-01
 1  3  3     1.7132294574e-01
 2  1  1     5.2559167855e-02
 2  1  2     3.9753748041e-02
 2  1  3    -1.1497587617e-01
 2  2  1    -1.6183323616e-03
 2  2  2    -1.0986013510e-01
 2  2  3     1.1120519708e-01
 2  3  1    -7.3417332353e-02
 2  3  2     2.8983629371e-02
 2  3  3     9.8913348840e-02
 3  1  1    -4.4455757399e-02
 3  1  2    -8.5645541940e-02
 3  1  3     1.0079984177e-01
 3  2  1     8.5876535153e-02
 3  2  2    -4.4589121393e-02
 3  2  3    -4.3962849269e-03
 3  3  1     4.6592626454e-02
 3  3  2     8.9493366130e-02
 3  3  3     1.4524116479e+00

   19
0.0000000000e+00 0.0000000000e+00 0.0000000000e+00
2.2147987173e+00 -3.8361439068e+00 0.0000000000e+00
     1      3      1
 1  1  1     2.1638069297e-01
 1  1  2    -7.5586829506e-02
 1  1  3     6.7425043828e-02
 1  2  1    -5.3433577250e-02
 1  2  2     5.9336711503e-02
 1  2  3     1.1782267579e-01
 1  3  1     1.7186562009e-01
 1  3  2     3.1596493961e-01
 1  3  3    -1.3468075291e-01
 2  1  1    -6.8967497858e-02
 2  1  2     9.3885597056e-02
 2  1  3     2.0195936206e-02
 2  2  1     6.3158384412e-02
 2  2  2     2.3256590332e-01
 2  2  3    -1.9199547445e-01
 2  3  1     1.1781020212e-01
 2  3  2    -7.8574574754e-02
 2  3  3    -2.1352560547e-02
 3  1  1    -6.7376532786e-02
 3  1  2     1.9565040233e-01
 3  1  3    -2.1572774825e-01
 3  2  1     9.8023662751e-02
 3  2  2    -5.7193897831e-02
 3  2  3    -1.2455047352e-01
 3  3  1    -8.5832236325e-02
 3  3  2    -1.0596067315e-01
 3  3  3    -2.5655658374e+00

   20
0.0000000000e+00 0.0000000000e+00 0.0000000000e+00
0.0000000000e+00 0.0000000000e+00 0.0000000000e+00
     1      4      1
 1  1  1     0.0000000000e+00
 1  1  2     3.5691804016e-02
 1  1  3     1.1436449930e-01
 1  2  1     8.1536631498e-02
 1  2  2     0.0000000000e+00
 1  2  3     0.0000000000e+00
 1  3  1     8.5262788524e-02
 1  3  2     0.0000000000e+00
 1  3  3     0.0000000000e+00
 2  1  1     3.5691804016e-02
 2  1  2     0.0000000000e+00
 2  1  3     0.0000000000e+00
 2  2  1     0.0000000000e+00
 2  2  2     2.2594773871e+00
 2  2  3    -2.1606082876e+00
 2  3  1     0.0000000000e+00
 2  3  2    -2.4017692530e+00
 2  3  3     1.4039811862e+00
 3  1  1     1.1436449930e-01
 3  1  2     0.0000000000e+00
 3  1  3     0.0000000000e+00
 3  2  1     0.0000000000e+00
 3  2  2    -2.1606082876e+00
 3  2  3     1.1458317717e+00
 3  3  1     0.0000000000e+00
 3  3  2     1.4039811862e+00
 3  3  3    -4.9449865730e-01

   21
0.0000000000e+00 0.0000000000e+00 0.0000000000e+00
0.0000000000e+00 0.0000000000e+00 0.0000000000e+00
     1      4      4
 1  1  1     0.0000000000e+00
 1  1  2     1.6626902785e-01
 1  1  3    -1.3092029438e-01
 1  2  1     1.6626902785e-01
 1  2  2     0.0000000000e+00
 1  2  3     0.0000000000e+00
 1  3  1    -1.3092029438e-01
 1  3  2     0.0000000000e+00
 1  3  3     0.0000000000e+00
 2  1  1     2.9583180108e-02
 2  1  2     0.0000000000e+00
 2  1  3     0.0000000000e+00
 2  2  1     0.0000000000e+00
 2  2  2    -2.1868832078e+00
 2  2  3     2.2111919568e+00
 2  3  1     0.0000000000e+00
 2  3  2     2.2111919568e+00
 2  3  3    -1.8245969813e+00
 3  1  1    -4.7184563045e-03
 3  1  2     0.0000000000e+00
 3  1  3     0.0000000000e+00
 3  2  1     0.0000000000e+00
 3  2  2     2.0526440077e+00
 3  2  3    -1.3236804528e+00
 3  3  1     0.0000000000e+00
 3  3  2    -1.3236804528e+00
 3  3  3     6.9331525208e-01

   22
0.0000000000e+00 0.0000000000e+00 0.0000000000e+00
-2.2147987173e+00 3.8361439068e+00 0.0000000000e+00
     1      4      4
 1  1  1    -4.5000920383e-03
 1  1  2    -1.4889181074e-02
 1  1  3    -1.2449560963e-02
 1  2  1     5.3912108873e-03
 1  2  2     1.8723820817e-02
 1  2  3     2.8251268020e-03
 1  3  1     1.0890156943e-04
 1  3  2    -1.6015976372e-02
 1  3  3    -5.9871106752e-02
 2  1  1     1.2765384064e-02
 2  1  2    -1.7466401307e-02
 2  1  3    -8.7653446483e-03
 2  2  1    -5.7575115483e-03
 2  2  2    -4.5533104254e-03
 2  2  3     7.7246421197e-03
 2  3  1    -4.4255049220e-03
 2  3  2    -4.8338204132e-03
 2  3  3    -3.4566599600e-02
 3  1  1     2.3431951770e-02
 3  1  2    -2.4102147604e-03
 3  1  3     1.9306087035e-03
 3  2  1     6.3724149311e-02
 3  2  2    -1.1967664849e-02
 3  2  3    -2.2315764735e-02
 3  3  1    -1.8360714814e-02
 3  3  2     1.2829838549e-02
 3  3  3     1.4649906499e-02

   23
0.0000000000e+00 0.0000000000e+00 0.0000000000e+00
2.2147987173e+00 3.8361439068e+00 0.0000000000e+00
     1      4      4
 1  1  1     4.5000920383e-03
 1  1  2    -1.4889181074e-02
 1  1  3    -1.2449560963e-02
 1  2  1     5.3912108873e-03
 1  2  2    -1.8723820817e-02
 1  2  3    -2.8251268020e-03
 1  3  1     1.0890156943e-04
 1  3  2     1.6015976372e-02
 1  3  3     5.9871106752e-02
 2  1  1     1.2765384064e-02
 2  1  2     1.7466401307e-02
 2  1  3     8.7653446483e-03
 2  2  1     5.7575115483e-03
 2  2  2    -4.5533104254e-03
 2  2  3     7.7246421197e-03
 2  3  1     4.4255049220e-03
 2  3  2    -4.8338204132e-03
 2  3  3    -3.4566599600e-02
 3  1  1     2.3431951770e-02
 3  1  2     2.4102147604e-03
 3  1  3    -1.9306087035e-03
 3  2  1    -6.3724149311e-02
 3  2  2    -1.1967664849e-02
 3  2  3    -2.2315764735e-02
 3  3  1     1.8360714814e-02
 3  3  2     1.2829838549e-02
 3  3  3     1.4649906499e-02

   24
0.0000000000e+00 0.0000000000e+00 0.0000000000e+00
2.2147987173e+00 -3.8361439068e+00 0.0000000000e+00
     1      4      1
 1  1  1    -1.5416662250e-01
 1  1  2    -8.6094919796e-02
 1  1  3     2.0671013675e-02
 1  2  1    -1.2923391725e-01
 1  2  2    -2.6482562374e-02
 1  2  3     1.7234400010e-02
 1  3  1     2.2724320621e-02
 1  3  2     7.9812472587e-02
 1  3  3     8.0200435647e-02
 2  1  1    -4.5468931284e-02
 2  1  2    -1.2465692316e-01
 2  1  3    -1.5276736819e-01
 2  2  1    -3.0271369713e-03
 2  2  2    -3.1744931891e-02
 2  2  3    -3.3031502830e-02
 2  3  1    -2.1386812171e-01
 2  3  2     1.0012138573e-01
 2  3  3     2.4487083121e-01
 3  1  1    -7.8293370452e-02
 3  1  2     7.4371513826e-02
 3  1  3     1.9267970037e-01
 3  2  1    -9.5630254378e-02
 3  2  2     6.5932881297e-02
 3  2  3     1.1124367687e-01
 3  3  1     2.5216457830e-01
 3  3  2    -5.2979800939e-02
 3  3  3    -1.1405225881e-01

   25
0.0000000000e+00 0.0000000000e+00 0.0000000000e+00
-2.2147987173e+00 -3.8361439068e+00 0.0000000000e+00
     1      4      1
 1  1  1     1.5416662250e-01
 1  1  2    -8.6094919796e-02
 1  1  3     2.0671013675e-02
 1  2  1    -1.2923391725e-01
 1  2  2     2.6482562374e-02
 1  2  3    -1.7234400010e-02
 1  3  1     2.2724320621e-02
 1  3  2    -7.9812472587e-02
 1  3  3    -8.0200435647e-02
 2  1  1    -4.5468931284e-02
 2  1  2     1.2465692316e-01
 2  1  3     1.5276736819e-01
 2  2  1     3.0271369713e-03
 2  2  2    -3.1744931891e-02
 2  2  3    -3.3031502830e-02
 2  3  1     2.1386812171e-01
 2  3  2     1.0012138573e-01
 2  3  3     2.4487083121e-01
 3  1  1    -7.8293370452e-02
 3  1  2    -7.4371513826e-02
 3  1  3    -1.9267970037e-01
 3  2  1     9.5630254378e-02
 3  2  2     6.5932881297e-02
 3  2  3     1.1124367687e-01
 3  3  1    -2.5216457830e-01
 3  3  2    -5.2979800939e-02
 3  3  3    -1.1405225881e-01

   26
4.4295974345e+00 0.0000000000e+00 0.0000000000e+00
0.0000000000e+00 0.0000000000e+00 0.0000000000e+00
     1      1      1
 1  1  1    -6.4917500000e-01
 1  1  2     1.1493321888e-01
 1  1  3     1.7249524133e-03
 1  2  1     1.1385967881e-01
 1  2  2     1.5875969484e-01
 1  2  3     1.8247501933e-01
 1  3  1     1.6731345926e-01
 1  3  2     1.6939124799e-01
 1  3  3     3.4007947990e-01
 2  1  1     1.1493321888e-01
 2  1  2     1.1318019761e-01
 2  1  3    -7.0665092704e-02
 2  2  1     1.5875969484e-01
 2  2  2    -6.6776712421e-02
 2  2  3    -1.1615708092e-01
 2  3  1     1.6939124799e-01
 2  3  2     7.1277668624e-02
 2  3  3    -1.8902962368e-02
 3  1  1     1.7249524133e-03
 3  1  2    -7.0665092704e-02
 3  1  3     7.2673340802e-02
 3  2  1     1.8247501933e-01
 3  2  2    -1.1615708092e-01
 3  2  3     8.9099800688e-02
 3  3  1     3.4007947990e-01
 3  3  2    -1.8902962368e-02
 3  3  3     1.3622544876e+00

   27
4.4295974345e+00 0.0000000000e+00 0.0000000000e+00
0.0000000000e+00 0.0000000000e+00 0.0000000000e+00
     1      1      3
 1  1  1     0.0000000000e+00
 1  1  2    -2.1604820145e-01
 1  1  3    -2.0379467218e-01
 1  2  1    -1.7836102858e-01
 1  2  2    -3.8216729088e-03
 1  2  3    -9.9077368748e-02
 1  3  1    -1.8690415697e-01
 1  3  2    -1.2664109634e-01
 1  3  3    -4.8848516586e-02
 2  1  1    -1.7836102858e-01
 2  1  2     3.8216729088e-03
 2  1  3     9.9077368748e-02
 2  2  1     0.0000000000e+00
 2  2  2    -1.4221645069e-01
 2  2  3     2.9708571751e-01
 2  3  1    -2.9014356754e-02
 2  3  2     6.2333726351e-02
 2  3  3     1.2731323370e-01
 3  1  1    -1.8690415697e-01
 3  1  2     1.2664109634e-01
 3  1  3     4.8848516586e-02
 3  2  1     2.9014356754e-02
 3  2  2     6.2333726351e-02
 3  2  3     1.2731323370e-01
 3  3  1     0.0000000000e+00
 3  3  2     2.4910094704e-01
 3  3  3    -2.5655658374e+00

   28
4.4295974345e+00 0.0000000000e+00 0.0000000000e+00
4.4295974345e+00 0.0000000000e+00 0.0000000000e+00
     1      1      1
 1  1  1     6.4917500000e-01
 1  1  2     1.1493321888e-01
 1  1  3     1.7249524133e-03
 1  2  1     1.1493321888e-01
 1  2  2    -1.1318019761e-01
 1  2  3     7.0665092704e-02
 1  3  1     1.7249524133e-03
 1  3  2     7.0665092704e-02
 1  3  3    -7.2673340802e-02
 2  1  1     1.1385967881e-01
 2  1  2    -1.5875969484e-01
 2  1  3    -1.8247501933e-01
 2  2  1    -1.5875969484e-01
 2  2  2    -6.6776712421e-02
 2  2  3    -1.1615708092e-01
 2  3  1    -1.8247501933e-01
 2  3  2    -1.1615708092e-01
 2  3  3     8.9099800688e-02
 3  1  1     1.6731345926e-01
 3  1  2    -1.6939124799e-01
 3  1  3    -3.4007947990e-01
 3  2  1    -1.6939124799e-01
 3  2  2     7.1277668624e-02
 3  2  3    -1.8902962368e-02
 3  3  1    -3.4007947990e-01
 3  3  2    -1.8902962368e-02
 3  3  3     1.3622544876e+00

   29
4.4295974345e+00 0.0000000000e+00 0.0000000000e+00
2.2147987173e+00 3.8361439068e+00 0.0000000000e+00
     1      1      1
 1  1  1     0.0000000000e+00
 1  1  2    -1.4414941721e-02
 1  1  3     5.6172234494e-02
 1  2  1     1.4832159243e-02
 1  2  2     1.6885821615e-02
 1  2  3    -3.0587833964e-02
 1  3  1    -3.8846463971e-03
 1  3  2     6.5261690313e-02
 1  3  3    -2.8162356497e-02
 2  1  1     1.4832159243e-02
 2  1  2    -1.6885821615e-02
 2  1  3     3.0587833964e-02
 2  2  1     0.0000000000e+00
 2  2  2    -5.0831255885e-03
 2  2  3    -2.3903606694e-02
 2  3  1     4.0860223850e-03
 2  3  2     3.6153274197e-02
 2  3  3    -1.6259544105e-02
 3  1  1    -3.8846463971e-03
 3  1  2    -6.5261690313e-02
 3  1  3     2.8162356497e-02
 3  2  1    -4.0860223850e-03
 3  2  2     3.6153274197e-02
 3  2  3    -1.6259544105e-02
 3  3  1     0.0000000000e+00
 3  3  2     3.2519088210e-02
 3  3  3    -6.0254148450e-02

   30
4.4295974345e+00 0.0000000000e+00 0.0000000000e+00
2.2147987173e+00 3.8361439068e+00 0.0000000000e+00
     1      1      4
 1  1  1     0.0000000000e+00
 1  1  2     8.6678207171e-02
 1  1  3     1.3881991828e-01
 1  2  1    -4.0225776249e-02
 1  2  2    -2.3455425403e-02
 1  2  3    -1.4684029715e-01
 1  3  1     3.9081623045e-02
 1  3  2    -1.4213799792e-01
 1  3  3    -1.7196414265e-01
 2  1  1    -4.0225776249e-02
 2  1  2     2.3455425403e-02
 2  1  3     1.4684029715e-01
 2  2  1     0.0000000000e+00
 2  2  2     2.3527949111e-01
 2  2  3    -1.5974211932e-02
 2  3  1     2.7863770286e-02
 2  3  2    -5.1442112200e-02
 2  3  3    -1.9189103027e-01
 3  1  1     3.9081623045e-02
 3  1  2     1.4213799792e-01
 3  1  3     1.7196414265e-01
 3  2  1    -2.7863770286e-02
 3  2  2    -5.1442112200e-02
 3  2  3    -1.9189103027e-01
 3  3  1     0.0000000000e+00
 3  3  2    -2.2248735375e-01
 3  3  3    -1.1405225881e-01

   31
4.4295974345e+00 0.0000000000e+00 0.0000000000e+00
2.2147987173e+00 -3.8361439068e+00 0.0000000000e+00
     1      1      1
 1  1  1     0.0000000000e+00
 1  1  2    -8.6065554586e-02
 1  1  3     5.4738352582e-03
 1  2  1    -2.5051313908e-02
 1  2  2    -3.5226588279e-02
 1  2  3     2.3420761545e-02
 1  3  1    -1.7328656000e-02
 1  3  2    -3.6585786012e-02
 1  3  3    -1.8431036622e-02
 2  1  1    -2.5051313908e-02
 2  1  2     3.5226588279e-02
 2  1  3    -2.3420761545e-02
 2  2  1     0.0000000000e+00
 2  2  2     4.5389394134e-02
 2  2  3    -2.4929486420e-02
 2  3  1     1.0255737079e-02
 2  3  2    -2.1269951612e-03
 2  3  3     1.0641163955e-02
 3  1  1    -1.7328656000e-02
 3  1  2     3.6585786012e-02
 3  1  3     1.8431036622e-02
 3  2  1    -1.0255737079e-02
 3  2  2    -2.1269951612e-03
 3  2  3     1.0641163955e-02
 3  3  1     0.0000000000e+00
 3  3  2    -2.1282327910e-02
 3  3  3     1.5440792948e-02

   32
-4.4295974345e+00 0.0000000000e+00 0.0000000000e+00
0.0000000000e+00 0.0000000000e+00 0.0000000000e+00
     1      1      1
 1  1  1     6.4917500000e-01
 1  1  2     1.1493321888e-01
 1  1  3     1.7249524133e-03
 1  2  1     1.1385967881e-01
 1  2  2    -1.5875969484e-01
 1  2  3    -1.8247501933e-01
 1  3  1     1.6731345926e-01
 1  3  2    -1.6939124799e-01
 1  3  3    -3.4007947990e-01
 2  1  1     1.1493321888e-01
 2  1  2    -1.1318019761e-01
 2  1  3     7.0665092704e-02
 2  2  1    -1.5875969484e-01
 2  2  2    -6.6776712421e-02
 2  2  3    -1.1615708092e-01
 2  3  1    -1.6939124799e-01
 2  3  2     7.1277668624e-02
 2  3  3    -1.8902962368e-02
 3  1  1     1.7249524133e-03
 3  1  2     7.0665092704e-02
 3  1  3    -7.2673340802e-02
 3  2  1    -1.8247501933e-01
 3  2  2    -1.1615708092e-01