  116

    1
0.0000000000e+00 0.0000000000e+00 0.0000000000e+00
0.0000000000e+00 0.0000000000e+00 0.0000000000e+00
     1      1      1
 1  1  1     0.0000000000e+00
 1  1  2     1.5476772661e+02
 1  1  3     0.0000000000e+00
 1  2  1     1.5476772661e+02
 1  2  2     0.0000000000e+00
 1  2  3     0.0000000000e+00
 1  3  1     0.0000000000e+00
 1  3  2     0.0000000000e+00
 1  3  3     0.0000000000e+00
 2  1  1     1.5476772661e+02
 2  1  2     0.0000000000e+00
 2  1  3     0.0000000000e+00
 2  2  1     0.0000000000e+00
 2  2  2    -1.5476772268e+02
 2  2  3     0.0000000000e+00
 2  3  1     0.0000000000e+00
 2  3  2     0.0000000000e+00
 2  3  3     0.0000000000e+00
 3  1  1     0.0000000000e+00
 3  1  2     0.0000000000e+00
 3  1  3     0.0000000000e+00
 3  2  1     0.0000000000e+00
 3  2  2     0.0000000000e+00
 3  2  3     0.0000000000e+00
 3  3  1     0.0000000000e+00
 3  3  2     0.0000000000e+00
 3  3  3     0.0000000000e+00

    2
0.0000000000e+00 0.0000000000e+00 0.0000000000e+00
0.0000000000e+00 0.0000000000e+00 0.0000000000e+00
     1      1      2
 1  1  1    -1.0837837744e+02
 1  1  2    -7.6417467346e+01
 1  1  3     0.0000000000e+00
 1  2  1    -6.9057565843e+01
 1  2  2    -3.1876883836e+01
 1  2  3     0.0000000000e+00
 1  3  1     0.0000000000e+00
 1  3  2     0.0000000000e+00
 1  3  3     1.2185053254e+01
 2  1  1    -6.9057565843e+01
 2  1  2    -3.1876883836e+01
 2  1  3     0.0000000000e+00
 2  2  1    -4.4624607016e+01
 2  2  2    -1.1918846146e+01
 2  2  3     0.0000000000e+00
 2  3  1     0.0000000000e+00
 2  3  2     0.0000000000e+00
 2  3  3     7.0350436873e+00
 3  1  1     0.0000000000e+00
 3  1  2     0.0000000000e+00
 3  1  3     1.2185053254e+01
 3  2  1     0.0000000000e+00
 3  2  2     0.0000000000e+00
 3  2  3     7.0350436873e+00
 3  3  1     1.1204125703e+01
 3  3  2     6.4687049089e+00
 3  3  3     0.0000000000e+00

    3
0.0000000000e+00 0.0000000000e+00 0.0000000000e+00
2.4672353023e+00 0.0000000000e+00 0.0000000000e+00
     1      1      1
 1  1  1    -1.1452550000e+01
 1  1  2     1.8306801083e+00
 1  1  3     0.0000000000e+00
 1  2  1    -2.0352330135e+00
 1  2  2     3.7095057674e+00
 1  2  3     0.0000000000e+00
 1  3  1     0.0000000000e+00
 1  3  2     0.0000000000e+00
 1  3  3     8.9749225839e-01
 2  1  1    -2.0352330135e+00
 2  1  2     3.7095057674e+00
 2  1  3     0.0000000000e+00
 2  2  1     3.0419399753e+00
 2  2  2    -3.6817787424e-01
 2  2  3     0.0000000000e+00
 2  3  1     0.0000000000e+00
 2  3  2     0.0000000000e+00
 2  3  3    -3.9931024701e-03
 3  1  1     0.0000000000e+00
 3  1  2     0.0000000000e+00
 3  1  3     8.9749225839e-01
 3  2  1     0.0000000000e+00
 3  2  2     0.0000000000e+00
 3  2  3    -3.9931024701e-03
 3  3  1    -2.2386425341e-01
 3  3  2    -7.7784443955e-01
 3  3  3     0.0000000000e+00

    4
0.0000000000e+00 0.0000000000e+00 0.0000000000e+00
-2.4672353023e+00 0.0000000000e+00 0.0000000000e+00
     1      1      1
 1  1  1     1.1452550000e+01
 1  1  2     1.8306801083e+00
 1  1  3     0.0000000000e+00
 1  2  1    -2.0352330135e+00
 1  2  2    -3.7095057674e+00
 1  2  3     0.0000000000e+00
 1  3  1     0.0000000000e+00
 1  3  2     0.0000000000e+00
 1  3  3    -8.9749225839e-01
 2  1  1    -2.0352330135e+00
 2  1  2    -3.7095057674e+00
 2  1  3     0.0000000000e+00
 2  2  1    -3.0419399753e+00
 2  2  2    -3.6817787424e-01
 2  2  3     0.0000000000e+00
 2  3  1     0.0000000000e+00
 2  3  2     0.0000000000e+00
 2  3  3    -3.9931024701e-03
 3  1  1     0.0000000000e+00
 3  1  2     0.0000000000e+00
 3  1  3    -8.9749225839e-01
 3  2  1     0.0000000000e+00
 3  2  2     0.0000000000e+00
 3  2  3    -3.9931024701e-03
 3  3  1     2.2386425341e-01
 3  3  2    -7.7784443955e-01
 3  3  3     0.0000000000e+00

    5
0.0000000000e+00 0.0000000000e+00 0.0000000000e+00
-2.4672353023e+00 0.0000000000e+00 0.0000000000e+00
     1      1      2
 1  1  1     1.0837837744e+02
 1  1  2    -7.6417467346e+01
 1  1  3     0.0000000000e+00
 1  2  1    -6.9057565843e+01
 1  2  2     3.1876883836e+01
 1  2  3     0.0000000000e+00
 1  3  1     0.0000000000e+00
 1  3  2     0.0000000000e+00
 1  3  3    -1.2185053254e+01
 2  1  1    -6.9057565843e+01
 2  1  2     3.1876883836e+01
 2  1  3     0.0000000000e+00
 2  2  1     4.4624607016e+01
 2  2  2    -1.1918846146e+01
 2  2  3     0.0000000000e+00
 2  3  1     0.0000000000e+00
 2  3  2     0.0000000000e+00
 2  3  3     7.0350436873e+00
 3  1  1     0.0000000000e+00
 3  1  2     0.0000000000e+00
 3  1  3    -1.2185053254e+01
 3  2  1     0.0000000000e+00
 3  2  2     0.0000000000e+00
 3  2  3     7.0350436873e+00
 3  3  1    -1.1204125703e+01
 3  3  2     6.4687049089e+00
 3  3  3     0.0000000000e+00

    6
0.0000000000e+00 0.0000000000e+00 0.0000000000e+00
-1.2336176511e+00 2.1366884218e+00 0.0000000000e+00
     1      1      1
 1  1  1    -1.7672217302e+00
 1  1  2    -3.7272079842e+00
 1  1  3     0.0000000000e+00
 1  2  1    -1.2161224813e+00
 1  2  2     7.7201585226e+00
 1  2  3     0.0000000000e+00
 1  3  1     0.0000000000e+00
 1  3  2     0.0000000000e+00
 1  3  3    -4.4528800097e-01
 2  1  1    -1.2161224813e+00
 2  1  2     7.7201585226e+00
 2  1  3     0.0000000000e+00
 2  2  1     4.7059624889e+00
 2  2  2    -4.2878448029e+00
 2  2  3     0.0000000000e+00
 2  3  1     0.0000000000e+00
 2  3  2     0.0000000000e+00
 2  3  3     7.7924763684e-01
 3  1  1     0.0000000000e+00
 3  1  2     0.0000000000e+00
 3  1  3    -4.4528800097e-01
 3  2  1     0.0000000000e+00
 3  2  2     0.0000000000e+00
 3  2  3     7.7924763684e-01
 3  3  1     7.8556518009e-01
 3  3  2     1.9505009179e-01
 3  3  3     0.0000000000e+00

    7
0.0000000000e+00 0.0000000000e+00 0.0000000000e+00
1.2336176511e+00 2.1366884218e+00 0.0000000000e+00
     1      1      1
 1  1  1     1.7672217302e+00
 1  1  2    -3.7272079842e+00
 1  1  3     0.0000000000e+00
 1  2  1    -1.2161224813e+00
 1  2  2    -7.7201585226e+00
 1  2  3     0.0000000000e+00
 1  3  1     0.0000000000e+00
 1  3  2     0.0000000000e+00
 1  3  3     4.4528800097e-01
 2  1  1    -1.2161224813e+00
 2  1  2    -7.7201585226e+00
 2  1  3     0.0000000000e+00
 2  2  1    -4.7059624889e+00
 2  2  2    -4.2878448029e+00
 2  2  3     0.0000000000e+00
 2  3  1     0.0000000000e+00
 2  3  2     0.0000000000e+00
 2  3  3     7.7924763684e-01
 3  1  1     0.0000000000e+00
 3  1  2     0.0000000000e+00
 3  1  3     4.4528800097e-01
 3  2  1     0.0000000000e+00
 3  2  2     0.0000000000e+00
 3  2  3     7.7924763684e-01
 3  3  1    -7.8556518009e-01
 3  3  2     1.9505009179e-01
 3  3  3     0.0000000000e+00

    8
0.0000000000e+00 0.0000000000e+00 0.0000000000e+00
1.2336176511e+00 -2.1366884218e+00 0.0000000000e+00
     1      1      1
 1  1  1     3.2153546014e+00
 1  1  2     4.9282184955e-01
 1  1  3     0.0000000000e+00
 1  2  1     1.8476494684e+00
 1  2  2    -5.0054616246e+00
 1  2  3     0.0000000000e+00
 1  3  1     0.0000000000e+00
 1  3  2     0.0000000000e+00
 1  3  3     4.5220425742e-01
 2  1  1     1.8476494684e+00
 2  1  2    -5.0054616246e+00
 2  1  3     0.0000000000e+00
 2  2  1    -8.6872234505e+00
 2  2  2     6.0597286679e+00
 2  2  3     0.0000000000e+00
 2  3  1     0.0000000000e+00
 2  3  2     0.0000000000e+00
 2  3  3    -7.7525453437e-01
 3  1  1     0.0000000000e+00
 3  1  2     0.0000000000e+00
 3  1  3     4.5220425742e-01
 3  2  1     0.0000000000e+00
 3  2  2     0.0000000000e+00
 3  2  3    -7.7525453437e-01
 3  3  1     5.6170092669e-01
 3  3  2     5.8279434777e-01
 3  3  3     0.0000000000e+00

    9
0.0000000000e+00 0.0000000000e+00 0.0000000000e+00
-1.2336176511e+00 -2.1366884218e+00 0.0000000000e+00
     1      1      1
 1  1  1    -3.2153546014e+00
 1  1  2     4.9282184955e-01
 1  1  3     0.0000000000e+00
 1  2  1     1.8476494684e+00
 1  2  2     5.0054616246e+00
 1  2  3     0.0000000000e+00
 1  3  1     0.0000000000e+00
 1  3  2     0.0000000000e+00
 1  3  3    -4.5220425742e-01
 2  1  1     1.8476494684e+00
 2  1  2     5.0054616246e+00
 2  1  3     0.0000000000e+00
 2  2  1     8.6872234505e+00
 2  2  2     6.0597286679e+00
 2  2  3     0.0000000000e+00
 2  3  1     0.0000000000e+00
 2  3  2     0.0000000000e+00
 2  3  3    -7.7525453437e-01
 3  1  1     0.0000000000e+00
 3  1  2     0.0000000000e+00
 3  1  3    -4.5220425742e-01
 3  2  1     0.0000000000e+00
 3  2  2     0.0000000000e+00
 3  2  3    -7.7525453437e-01
 3  3  1    -5.6170092669e-01
 3  3  2     5.8279434777e-01
 3  3  3     0.0000000000e+00

   10
0.0000000000e+00 0.0000000000e+00 0.0000000000e+00
-1.2336176511e+00 -2.1366884218e+00 0.0000000000e+00
     1      1      2
 1  1  1     0.0000000000e+00
 1  1  2     8.7462025428e-01
 1  1  3     0.0000000000e+00
 1  2  1    -1.3845182751e+01
 1  2  2     0.0000000000e+00
 1  2  3     0.0000000000e+00
 1  3  1     0.0000000000e+00
 1  3  2     0.0000000000e+00
 1  3  3     0.0000000000e+00
 2  1  1    -1.3845182751e+01
 2  1  2     0.0000000000e+00
 2  1  3     0.0000000000e+00
 2  2  1     0.0000000000e+00
 2  2  2     1.7579800288e+02
 2  2  3     0.0000000000e+00
 2  3  1     0.0000000000e+00
 2  3  2     0.0000000000e+00
 2  3  3    -1.4070087375e+01
 3  1  1     0.0000000000e+00
 3  1  2     0.0000000000e+00
 3  1  3     0.0000000000e+00
 3  2  1     0.0000000000e+00
 3  2  2     0.0000000000e+00
 3  2  3    -1.4070087375e+01
 3  3  1     0.0000000000e+00
 3  3  2    -1.2937409818e+01
 3  3  3     0.0000000000e+00

   11
0.0000000000e+00 0.0000000000e+00 0.0000000000e+00
0.0000000000e+00 0.0000000000e+00 0.0000000000e+00
     1      2      1
 1  1  1    -1.0837837744e+02
 1  1  2    -6.9057565843e+01
 1  1  3     0.0000000000e+00
 1  2  1    -7.6417467346e+01
 1  2  2    -3.1876883836e+01
 1  2  3     0.0000000000e+00
 1  3  1     0.0000000000e+00
 1  3  2     0.0000000000e+00
 1  3  3     1.2185053254e+01
 2  1  1    -6.9057565843e+01
 2  1  2    -4.4624607016e+01
 2  1  3     0.0000000000e+00
 2  2  1    -3.1876883836e+01
 2  2  2    -1.1918846146e+01
 2  2  3     0.0000000000e+00
 2  3  1     0.0000000000e+00
 2  3  2     0.0000000000e+00
 2  3  3     7.0350436873e+00
 3  1  1     0.0000000000e+00
 3  1  2     0.0000000000e+00
 3  1  3     1.1204125703e+01
 3  2  1     0.0000000000e+00
 3  2  2     0.0000000000e+00
 3  2  3     6.4687049089e+00
 3  3  1     1.2185053254e+01
 3  3  2     7.0350436873e+00
 3  3  3     0.0000000000e+00

   12
0.0000000000e+00 0.0000000000e+00 0.0000000000e+00
0.0000000000e+00 0.0000000000e+00 0.0000000000e+00
     1      2      2
 1  1  1     1.0837837744e+02
 1  1  2     6.9057565843e+01
 1  1  3     0.0000000000e+00
 1  2  1     6.9057565843e+01
 1  2  2     4.4624607016e+01
 1  2  3     0.0000000000e+00
 1  3  1     0.0000000000e+00
 1  3  2     0.0000000000e+00
 1  3  3    -1.1204125703e+01
 2  1  1     7.6417467346e+01
 2  1  2     3.1876883836e+01
 2  1  3     0.0000000000e+00
 2  2  1     3.1876883836e+01
 2  2  2     1.1918846146e+01
 2  2  3     0.0000000000e+00
 2  3  1     0.0000000000e+00
 2  3  2     0.0000000000e+00
 2  3  3    -6.4687049089e+00
 3  1  1     0.0000000000e+00
 3  1  2     0.0000000000e+00
 3  1  3    -1.2185053254e+01
 3  2  1     0.0000000000e+00
 3  2  2     0.0000000000e+00
 3  2  3    -7.0350436873e+00
 3  3  1    -1.2185053254e+01
 3  3  2    -7.0350436873e+00
 3  3  3     0.0000000000e+00

   13
0.0000000000e+00 0.0000000000e+00 0.0000000000e+00
2.4672353023e+00 0.0000000000e+00 0.0000000000e+00
     1      2      1
 1  1  1     0.0000000000e+00
 1  1  2    -2.1315404993e-02
 1  1  3     0.0000000000e+00
 1  2  1     8.8236717728e+00
 1  2  2    -3.3918264540e+00
 1  2  3     0.0000000000e+00
 1  3  1     0.0000000000e+00
 1  3  2     0.0000000000e+00
 1  3  3    -1.2116626350e+00
 2  1  1    -2.1315404993e-02
 2  1  2     0.0000000000e+00
 2  1  3     0.0000000000e+00
 2  2  1     3.3918264540e+00
 2  2  2    -6.9746725733e-01
 2  2  3     0.0000000000e+00
 2  3  1     0.0000000000e+00
 2  3  2     0.0000000000e+00
 2  3  3     8.4588165464e-01
 3  1  1     0.0000000000e+00
 3  1  2     0.0000000000e+00
 3  1  3     0.0000000000e+00
 3  2  1     0.0000000000e+00
 3  2  2     0.0000000000e+00
 3  2  3    -1.2010202016e-01
 3  3  1     1.2116626350e+00
 3  3  2     8.4588165464e-01
 3  3  3     0.0000000000e+00

   14
0.0000000000e+00 0.0000000000e+00 0.0000000000e+00
-2.4672353023e+00 0.0000000000e+00 0.0000000000e+00
     1      2      2
 1  1  1     0.0000000000e+00
 1  1  2     2.1315404993e-02
 1  1  3     0.0000000000e+00
 1  2  1     2.1315404993e-02
 1  2  2     0.0000000000e+00
 1  2  3     0.0000000000e+00
 1  3  1     0.0000000000e+00
 1  3  2     0.0000000000e+00
 1  3  3     0.0000000000e+00
 2  1  1    -8.8236717728e+00
 2  1  2     3.3918264540e+00
 2  1  3     0.0000000000e+00
 2  2  1    -3.3918264540e+00
 2  2  2     6.9746725733e-01
 2  2  3     0.0000000000e+00
 2  3  1     0.0000000000e+00
 2  3  2     0.0000000000e+00
 2  3  3     1.2010202016e-01
 3  1  1     0.0000000000e+00
 3  1  2     0.0000000000e+00
 3  1  3     1.2116626350e+00
 3  2  1     0.0000000000e+00
 3  2  2     0.0000000000e+00
 3  2  3    -8.4588165464e-01
 3  3  1    -1.2116626350e+00
 3  3  2    -8.4588165464e-01
 3  3  3     0.0000000000e+00

   15
0.0000000000e+00 0.0000000000e+00 0.0000000000e+00
1.2336176511e+00 2.1366884218e+00 0.0000000000e+00
     1      2      1
 1  1  1     1.4481328709e+00
 1  1  2     6.5025062033e+00
 1  1  3     0.0000000000e+00
 1  2  1    -8.5739529721e-01
 1  2  2    -3.7665301139e+00
 1  2  3     0.0000000000e+00
 1  3  1     0.0000000000e+00
 1  3  2     0.0000000000e+00
 1  3  3     1.2672369331e-01
 2  1  1     6.2769038006e-01
 2  1  2     5.5893666080e+00
 2  1  3     0.0000000000e+00
 2  2  1    -3.7470365995e-01
 2  2  2    -3.2057068704e+00
 2  2  3     0.0000000000e+00
 2  3  1     0.0000000000e+00
 2  3  2     0.0000000000e+00
 2  3  3    -1.4722714367e+00
 3  1  1     0.0000000000e+00
 3  1  2     0.0000000000e+00
 3  1  3    -1.0401140182e-01
 3  2  1     0.0000000000e+00
 3  2  2     0.0000000000e+00
 3  2  3     6.0051010080e-02
 3  3  1     1.3383863283e+00
 3  3  2     6.2638978208e-01
 3  3  3     0.0000000000e+00

   16
0.0000000000e+00 0.0000000000e+00 0.0000000000e+00
-1.2336176511e+00 -2.1366884218e+00 0.0000000000e+00
     1      2      2
 1  1  1    -1.4481328709e+00
 1  1  2    -6.5025062033e+00
 1  1  3     0.0000000000e+00
 1  2  1    -6.2769038006e-01
 1  2  2    -5.5893666080e+00
 1  2  3     0.0000000000e+00
 1  3  1     0.0000000000e+00
 1  3  2     0.0000000000e+00
 1  3  3     1.0401140182e-01
 2  1  1     8.5739529721e-01
 2  1  2     3.7665301139e+00
 2  1  3     0.0000000000e+00
 2  2  1     3.7470365995e-01
 2  2  2     3.2057068704e+00
 2  2  3     0.0000000000e+00
 2  3  1     0.0000000000e+00
 2  3  2     0.0000000000e+00
 2  3  3    -6.0051010080e-02
 3  1  1     0.0000000000e+00
 3  1  2     0.0000000000e+00
 3  1  3    -1.2672369331e-01
 3  2  1     0.0000000000e+00
 3  2  2     0.0000000000e+00
 3  2  3     1.4722714367e+00
 3  3  1    -1.3383863283e+00
 3  3  2    -6.2638978208e-01
 3  3  3     0.0000000000e+00

   17
2.4672353023e+00 0.0000000000e+00 0.0000000000e+00
0.0000000000e+00 0.0000000000e+00 0.0000000000e+00
     1      1      1
 1  1  1    -1.1452550000e+01
 1  1  2    -2.0352330135e+00
 1  1  3     0.0000000000e+00
 1  2  1     1.8306801083e+00
 1  2  2     3.7095057674e+00
 1  2  3     0.0000000000e+00
 1  3  1     0.0000000000e+00
 1  3  2     0.0000000000e+00
 1  3  3     8.9749225839e-01
 2  1  1    -2.0352330135e+00
 2  1  2     3.0419399753e+00
 2  1  3     0.0000000000e+00
 2  2  1     3.7095057674e+00
 2  2  2    -3.6817787424e-01
 2  2  3     0.0000000000e+00
 2  3  1     0.0000000000e+00
 2  3  2     0.0000000000e+00
 2  3  3    -3.9931024701e-03
 3  1  1     0.0000000000e+00
 3  1  2     0.0000000000e+00
 3  1  3    -2.2386425341e-01
 3  2  1     0.0000000000e+00
 3  2  2     0.0000000000e+00
 3  2  3    -7.7784443955e-01
 3  3  1     8.9749225839e-01
 3  3  2    -3.9931024701e-03
 3  3  3     0.0000000000e+00

   18
2.4672353023e+00 0.0000000000e+00 0.0000000000e+00
0.0000000000e+00 0.0000000000e+00 0.0000000000e+00
     1      1      2
 1  1  1     0.0000000000e+00
 1  1  2     8.8236717728e+00
 1  1  3     0.0000000000e+00
 1  2  1    -2.1315404993e-02
 1  2  2    -3.3918264540e+00
 1  2  3     0.0000000000e+00
 1  3  1     0.0000000000e+00
 1  3  2     0.0000000000e+00
 1  3  3    -1.2116626350e+00
 2  1  1    -2.1315404993e-02
 2  1  2     3.3918264540e+00
 2  1  3     0.0000000000e+00
 2  2  1     0.0000000000e+00
 2  2  2    -6.9746725733e-01
 2  2  3     0.0000000000e+00
 2  3  1     0.0000000000e+00
 2  3  2     0.0000000000e+00
 2  3  3     8.4588165464e-01
 3  1  1     0.0000000000e+00
 3  1  2     0.0000000000e+00
 3  1  3     1.2116626350e+00
 3  2  1     0.0000000000e+00
 3  2  2     0.0000000000e+00
 3  2  3     8.4588165464e-01
 3  3  1     0.0000000000e+00
 3  3  2    -1.2010202016e-01
 3  3  3     0.0000000000e+00

   19
2.4672353023e+00 0.0000000000e+00 0.0000000000e+00
2.4672353023e+00 0.0000000000e+00 0.0000000000e+00
     1      1      1
 1  1  1     1.1452550000e+01
 1  1  2    -2.0352330135e+00
 1  1  3     0.0000000000e+00
 1  2  1    -2.0352330135e+00
 1  2  2    -3.0419399753e+00
 1  2  3     0.0000000000e+00
 1  3  1     0.0000000000e+00
 1  3  2     0.0000000000e+00
 1  3  3     2.2386425341e-01
 2  1  1     1.8306801083e+00
 2  1  2    -3.7095057674e+00
 2  1  3     0.0000000000e+00
 2  2  1    -3.7095057674e+00
 2  2  2    -3.6817787424e-01
 2  2  3     0.0000000000e+00
 2  3  1     0.0000000000e+00
 2  3  2     0.0000000000e+00
 2  3  3    -7.7784443955e-01
 3  1  1     0.0000000000e+00
 3  1  2     0.0000000000e+00
 3  1  3    -8.9749225839e-01
 3  2  1     0.0000000000e+00
 3  2  2     0.0000000000e+00
 3  2  3    -3.9931024701e-03
 3  3  1    -8.9749225839e-01
 3  3  2    -3.9931024701e-03
 3  3  3     0.0000000000e+00

   20
2.4672353023e+00 0.0000000000e+00 0.0000000000e+00
1.2336176511e+00 2.1366884218e+00 0.0000000000e+00
     1      1      1
 1  1  1     0.0000000000e+00
 1  1  2    -3.7352954254e+00
 1  1  3     0.0000000000e+00
 1  2  1     1.1135205729e+00
 1  2  2     2.7994651864e+00
 1  2  3     0.0000000000e+00
 1  3  1     0.0000000000e+00
 1  3  2     0.0000000000e+00
 1  3  3    -1.0310767510e-02
 2  1  1     1.1135205729e+00
 2  1  2    -2.7994651864e+00
 2  1  3     0.0000000000e+00
 2  2  1     0.0000000000e+00
 2  2  2     5.0275141375e-01
 2  2  3     0.0000000000e+00
 2  3  1     0.0000000000e+00
 2  3  2     0.0000000000e+00
 2  3  3    -5.9529243219e-03
 3  1  1     0.0000000000e+00
 3  1  2     0.0000000000e+00
 3  1  3     1.0310767510e-02
 3  2  1     0.0000000000e+00
 3  2  2     0.0000000000e+00
 3  2  3    -5.9529243219e-03
 3  3  1     0.0000000000e+00
 3  3  2     1.1905848644e-02
 3  3  3     0.0000000000e+00

   21
2.4672353023e+00 0.0000000000e+00 0.0000000000e+00
1.2336176511e+00 -2.1366884218e+00 0.0000000000e+00
     1      1      1
 1  1  1     0.0000000000e+00
 1  1  2    -1.0179103213e+00
 1  1  3     0.0000000000e+00
 1  2  1    -8.8765226285e-01
 1  2  2    -7.5204524158e-02
 1  2  3     0.0000000000e+00
 1  3  1     0.0000000000e+00
 1  3  2     0.0000000000e+00
 1  3  3     1.0061689076e-01
 2  1  1    -8.8765226285e-01
 2  1  2     7.5204524158e-02
 2  1  3     0.0000000000e+00
 2  2  1     0.0000000000e+00
 2  2  2     9.3107159205e-01
 2  2  3     0.0000000000e+00
 2  3  1     0.0000000000e+00
 2  3  2     0.0000000000e+00
 2  3  3    -5.8091188228e-02
 3  1  1     0.0000000000e+00
 3  1  2     0.0000000000e+00
 3  1  3    -1.0061689076e-01
 3  2  1     0.0000000000e+00
 3  2  2     0.0000000000e+00
 3  2  3    -5.8091188228e-02
 3  3  1     0.0000000000e+00
 3  3  2     1.1618237646e-01
 3  3  3     0.0000000000e+00

   22
-2.4672353023e+00 0.0000000000e+00 0.0000000000e+00
0.0000000000e+00 0.0000000000e+00 0.0000000000e+00
     1      1      1
 1  1  1     1.1452550000e+01
 1  1  2    -2.0352330135e+00
 1  1  3     0.0000000000e+00
 1  2  1     1.8306801083e+00
 1  2  2    -3.7095057674e+00
 1  2  3     0.0000000000e+00
 1  3  1     0.0000000000e+00
 1  3  2     0.0000000000e+00
 1  3  3    -8.9749225839e-01
 2  1  1    -2.0352330135e+00
 2  1  2    -3.0419399753e+00
 2  1  3     0.0000000000e+00
 2  2  1    -3.7095057674e+00
 2  2  2    -3.6817787424e-01
 2  2  3     0.0000000000e+00
 2  3  1     0.0000000000e+00
 2  3  2     0.0000000000e+00
 2  3  3    -3.9931024701e-03
 3  1  1     0.0000000000e+00
 3  1  2     0.0000000000e+00
 3  1  3     2.2386425341e-01
 3  2  1     0.0000000000e+00
 3  2  2     0.0000000000e+00
 3  2  3    -7.7784443955e-01
 3  3  1    -8.9749225839e-01
 3  3  2    -3.9931024701e-03
 3  3  3     0.0000000000e+00

   23
-2.4672353023e+00 0.0000000000e+00 0.0000000000e+00
-2.4672353023e+00 0.0000000000e+00 0.0000000000e+00
     1      1      1
 1  1  1    -1.1452550000e+01
 1  1  2    -2.0352330135e+00
 1  1  3     0.0000000000e+00
 1  2  1    -2.0352330135e+00
 1  2  2     3.0419399753e+00
 1  2  3     0.0000000000e+00
 1  3  1     0.0000000000e+00
 1  3  2     0.0000000000e+00
 1  3  3    -2.2386425341e-01
 2  1  1     1.8306801083e+00
 2  1  2     3.7095057674e+00
 2  1  3     0.0000000000e+00
 2  2  1     3.7095057674e+00
 2  2  2    -3.6817787424e-01
 2  2  3     0.0000000000e+00
 2  3  1     0.0000000000e+00
 2  3  2     0.0000000000e+00
 2  3  3    -7.7784443955e-01
 3  1  1     0.0000000000e+00
 3  1  2     0.0000000000e+00
 3  1  3     8.9749225839e-01
 3  2  1     0.0000000000e+00
 3  2  2     0.0000000000e+00
 3  2  3    -3.9931024701e-03
 3  3  1     8.9749225839e-01
 3  3  2    -3.9931024701e-03
 3  3  3     0.0000000000e+00

   24
-2.4672353023e+00 0.0000000000e+00 0.0000000000e+00
-2.4672353023e+00 0.0000000000e+00 0.0000000000e+00
     1      1      2
 1  1  1     0.0000000000e+00
 1  1  2     8.8236717728e+00
 1  1  3     0.0000000000e+00
 1  2  1    -2.1315404993e-02
 1  2  2     3.3918264540e+00
 1  2  3     0.0000000000e+00
 1  3  1     0.0000000000e+00
 1  3  2     0.0000000000e+00
 1  3  3     1.2116626350e+00
 2  1  1    -2.1315404993e-02
 2  1  2    -3.3918264540e+00
 2  1  3     0.0000000000e+00
 2  2  1     0.0000000000e+00
 2  2  2    -6.9746725733e-01
 2  2  3     0.0000000000e+00
 2  3  1     0.0000000000e+00
 2  3  2     0.0000000000e+00
 2  3  3     8.4588165464e-01
 3  1  1     0.0000000000e+00
 3  1  2     0.0000000000e+00
 3  1  3    -1.2116626350e+00
 3  2  1     0.0000000000e+00
 3  2  2     0.0000000000e+00
 3  2  3     8.4588165464e-01
 3  3  1     0.0000000000e+00
 3  3  2    -1.2010202016e-01
 3  3  3     0.0000000000e+00

   25
-2.4672353023e+00 0.0000000000e+00 0.0000000000e+00
-1.2336176511e+00 2.1366884218e+00 0.0000000000e+00
     1      1      1
 1  1  1     0.0000000000e+00
 1  1  2    -3.7352954254e+00
 1  1  3     0.0000000000e+00
 1  2  1     1.1135205729e+00
 1  2  2    -2.7994651864e+00
 1  2  3     0.0000000000e+00
 1  3  1     0.0000000000e+00
 1  3  2     0.0000000000e+00
 1  3  3     1.0310767510e-02
 2  1  1     1.1135205729e+00
 2  1  2     2.7994651864e+00
 2  1  3     0.0000000000e+00
 2  2  1     0.0000000000e+00
 2  2  2     5.0275141375e-01
 2  2  3     0.0000000000e+00
 2  3  1     0.0000000000e+00
 2  3  2     0.0000000000e+00
 2  3  3    -5.9529243219e-03
 3  1  1     0.0000000000e+00
 3  1  2     0.0000000000e+00
 3  1  3    -1.0310767510e-02
 3  2  1     0.0000000000e+00
 3  2  2     0.0000000000e+00
 3  2  3    -5.9529243219e-03
 3  3  1     0.0000000000e+00
 3  3  2     1.1905848644e-02
 3  3  3     0.0000000000e+00

   26
-2.4672353023e+00 0.0000000000e+00 0.0000000000e+00
-1.2336176511e+00 -2.1366884218e+00 0.0000000000e+00
     1      1      1
 1  1  1     0.0000000000e+00
 1  1  2    -1.0179103213e+00
 1  1  3     0.0000000000e+00
 1  2  1    -8.8765226285e-01
 1  2  2     7.5204524158e-02
 1  2  3     0.0000000000e+00
 1  3  1     0.0000000000e+00
 1  3  2     0.0000000000e+00
 1  3  3    -1.0061689076e-01
 2  1  1    -8.8765226285e-01
 2  1  2    -7.5204524158e-02
 2  1  3     0.0000000000e+00
 2  2  1     0.0000000000e+00
 2  2  2     9.3107159205e-01
 2  2  3     0.0000000000e+00
 2  3  1     0.0000000000e+00
 2  3  2     0.0000000000e+00
 2  3  3    -5.8091188228e-02
 3  1  1     0.0000000000e+00
 3  1  2     0.0000000000e+00
 3  1  3     1.0061689076e-01
 3  2  1     0.0000000000e+00
 3  2  2     0.0000000000e+00
 3  2  3    -5.8091188228e-02
 3  3  1     0.0000000000e+00
 3  3  2     1.1618237646e-01
 3  3  3     0.0000000000e+00

   27
-2.4672353023e+00 0.0000000000e+00 0.0000000000e+00
0.0000000000e+00 0.0000000000e+00 0.0000000000e+00
     1      2      1
 1  1  1     1.0837837744e+02
 1  1  2    -6.9057565843e+01
 1  1  3     0.0000000000e+00
 1  2  1    -7.6417467346e+01
 1  2  2     3.1876883836e+01
 1  2  3     0.0000000000e+00
 1  3  1     0.0000000000e+00
 1  3  2     0.0000000000e+00
 1  3  3    -1.2185053254e+01
 2  1  1    -6.9057565843e+01
 2  1  2     4.4624607016e+01
 2  1  3     0.0000000000e+00
 2  2  1     3.1876883836e+01
 2  2  2    -1.1918846146e+01
 2  2  3     0.0000000000e+00
 2  3  1     0.0000000000e+00
 2  3  2     0.0000000000e+00
 2  3  3     7.0350436873e+00
 3  1  1     0.0000000000e+00
 3  1  2     0.0000000000e+00
 3  1  3    -1.1204125703e+01
 3  2  1     0.0000000000e+00
 3  2  2     0.0000000000e+00
 3  2  3     6.4687049089e+00
 3  3  1    -1.2185053254e+01
 3  3  2     7.0350436873e+00
 3  3  3     0.0000000000e+00

   28
-2.4672353023e+00 0.0000000000e+00 0.0000000000e+00
0.0000000000e+00 0.0000000000e+00 0.0000000000e+00
     1      2      2
 1  1  1     0.0000000000e+00
 1  1  2     2.1315404993e-02
 1  1  3     0.0000000000e+00
 1  2  1     2.1315404993e-02
 1  2  2     0.0000000000e+00
 1  2  3     0.0000000000e+00
 1  3  1     0.0000000000e+00
 1  3  2     0.0000000000e+00
 1  3  3     0.0000000000e+00
 2  1  1    -8.8236717728e+00
 2  1  2    -3.3918264540e+00
 2  1  3     0.0000000000e+00
 2  2  1     3.3918264540e+00
 2  2  2     6.9746725733e-01
 2  2  3     0.0000000000e+00
 2  3  1     0.0000000000e+00
 2  3  2     0.0000000000e+00
 2  3  3     1.2010202016e-01
 3  1  1     0.0000000000e+00
 3  1  2     0.0000000000e+00
 3  1  3    -1.2116626350e+00
 3  2  1     0.0000000000e+00
 3  2  2     0.0000000000e+00
 3  2  3    -8.4588165464e-01
 3  3  1     1.2116626350e+00
 3  3  2    -8.4588165464e-01
 3  3  3     0.0000000000e+00

   29
-2.4672353023e+00 0.0000000000e+00 0.0000000000e+00
-2.4672353023e+00 0.0000000000e+00 0.0000000000e+00
     1      2      1
 1  1  1     0.0000000000e+00
 1  1  2    -2.1315404993e-02
 1  1  3     0.0000000000e+00
 1  2  1     8.8236717728e+00
 1  2  2     3.3918264540e+00
 1  2  3     0.0000000000e+00
 1  3  1     0.0000000000e+00
 1  3  2     0.0000000000e+00
 1  3  3     1.2116626350e+00
 2  1  1    -2.1315404993e-02
 2  1  2     0.0000000000e+00
 2  1  3     0.0000000000e+00
 2  2  1    -3.3918264540e+00
 2  2  2    -6.9746725733e-01
 2  2  3     0.0000000000e+00
 2  3  1     0.0000000000e+00
 2  3  2     0.0000000000e+00
 2  3  3     8.4588165464e-01
 3  1  1     0.0000000000e+00
 3  1  2     0.0000000000e+00
 3  1  3     0.0000000000e+00
 3  2  1     0.0000000000e+00
 3  2  2     0.0000000000e+00
 3  2  3    -1.2010202016e-01
 3  3  1    -1.2116626350e+00
 3  3  2     8.4588165464e-01
 3  3  3     0.0000000000e+00

   30
-2.4672353023e+00 0.0000000000e+00 0.0000000000e+00
-2.4672353023e+00 0.0000000000e+00 0.0000000000e+00
     1      2      2
 1  1  1    -1.0837837744e+02
 1  1  2     6.9057565843e+01
 1  1  3     0.0000000000e+00
 1  2  1     6.9057565843e+01
 1  2  2    -4.4624607016e+01
 1  2  3     0.0000000000e+00
 1  3  1     0.0000000000e+00
 1  3  2     0.0000000000e+00
 1  3  3     1.1204125703e+01
 2  1  1     7.6417467346e+01
 2  1  2    -3.1876883836e+01
 2  1  3     0.0000000000e+00
 2  2  1    -3.1876883836e+01
 2  2  2     1.1918846146e+01
 2  2  3     0.0000000000e+00
 2  3  1     0.0000000000e+00
 2  3  2     0.0000000000e+00
 2  3  3    -6.4687049089e+00
 3  1  1     0.0000000000e+00
 3  1  2     0.0000000000e+00
 3  1  3     1.2185053254e+01
 3  2  1     0.0000000000e+00
 3  2  2     0.0000000000e+00
 3  2  3    -7.0350436873e+00
 3  3  1     1.2185053254e+01
 3  3  2    -7.0350436873e+00
 3  3  3     0.0000000000e+00

   31
-2.4672353023e+00 0.0000000000e+00 0.0000000000e+00
-1.2336176511e+00 2.1366884218e+00 0.0000000000e+00
     1      2      1
 1  1  1    -1.4481328709e+00
 1  1  2     6.5025062033e+00
 1  1  3     0.0000000000e+00
 1  2  1    -8.5739529721e-01
 1  2  2     3.7665301139e+00
 1  2  3     0.0000000000e+00
 1  3  1     0.0000000000e+00
 1  3  2     0.0000000000e+00
 1  3  3    -1.2672369331e-01
 2  1  1     6.2769038006e-01
 2  1  2    -5.5893666080e+00
 2  1  3     0.0000000000e+00
 2  2  1     3.7470365995e-01
 2  2  2    -3.2057068704e+00
 2  2  3     0.0000000000e+00
 2  3  1     0.0000000000e+00
 2  3  2     0.0000000000e+00
 2  3  3    -1.4722714367e+00
 3  1  1     0.0000000000e+00
 3  1  2     0.0000000000e+00
 3  1  3     1.0401140182e-01
 3  2  1     0.0000000000e+00
 3  2  2     0.0000000000e+00
 3  2  3     6.0051010080e-02
 3  3  1    -1.3383863283e+00
 3  3  2     6.2638978208e-01
 3  3  3     0.0000000000e+00

   32
-2.4672353023e+00 0.0000000000e+00 0.0000000000e+00
-1.2336176511e+00 -2.1366884218e+00 0.0000000000e+00
     1      2      2
 1  1  1     1.4481328709e+00
 1  1  2    -6.5025062033e+00
 1  1  3     0.0000000000e+00
 1  2  1    -6.2769038006e-01
 1  2  2     5.5893666080e+00
 1  2  3     0.0000000000e+00
 1  3  1     0.0000000000e+00
 1  3  2     0.0000000000e+00
 1  3  3    -1.0401140182e-01
 2  1  1     8.5739529721e-01
 2  1  2    -3.7665301139e+00
 2  1  3     0.0000000000e+00
 2  2  1    -3.7470365995e-01
 2  2  2     3.2057068704e+00
 2  2  3     0.0000000000e+00
 2  3  1     0.0000000000e+00
 2  3  2     0.0000000000e+00
 2  3  3    -6.0051010080e-02
 3  1  1     0.0000000000e+00
 3  1  2     0.0000000000e+00
 3  1  3     1.2672369331e-01
 3  2  1     0.0000000000e+00
 3  2  2     0.0000000000e+00