  206

    1
0.0000000000e+00 0.0000000000e+00 0.0000000000e+00
0.0000000000e+00 0.0000000000e+00 0.0000000000e+00
     1      1      1
 1  1  1     0.0000000000e+00
 1  1  2     1.5604399517e+02
 1  1  3     0.0000000000e+00
 1  2  1     1.5604399517e+02
 1  2  2     0.0000000000e+00
 1  2  3     0.0000000000e+00
 1  3  1     0.0000000000e+00
 1  3  2     0.0000000000e+00
 1  3  3     0.0000000000e+00
 2  1  1     1.5604399517e+02
 2  1  2     0.0000000000e+00
 2  1  3     0.0000000000e+00
 2  2  1     0.0000000000e+00
 2  2  2    -1.5604399121e+02
 2  2  3     0.0000000000e+00
 2  3  1     0.0000000000e+00
 2  3  2     0.0000000000e+00
 2  3  3     0.0000000000e+00
 3  1  1     0.0000000000e+00
 3  1  2     0.0000000000e+00
 3  1  3     0.0000000000e+00
 3  2  1     0.0000000000e+00
 3  2  2     0.0000000000e+00
 3  2  3     0.0000000000e+00
 3  3  1     0.0000000000e+00
 3  3  2     0.0000000000e+00
 3  3  3     0.0000000000e+00

    2
0.0000000000e+00 0.0000000000e+00 0.0000000000e+00
0.0000000000e+00 0.0000000000e+00 0.0000000000e+00
     1      1      2
 1  1  1    -1.0912377300e+02
 1  1  2    -7.5089508964e+01
 1  1  3     0.0000000000e+00
 1  2  1    -7.0549202231e+01
 1  2  2    -3.3753242795e+01
 1  2  3     0.0000000000e+00
 1  3  1     0.0000000000e+00
 1  3  2     0.0000000000e+00
 1  3  3     1.1200205179e+01
 2  1  1    -7.0549202231e+01
 2  1  2    -3.3753242795e+01
 2  1  3     0.0000000000e+00
 2  2  1    -4.1617284639e+01
 2  2  2    -1.1940880443e+01
 2  2  3     0.0000000000e+00
 2  3  1     0.0000000000e+00
 2  3  2     0.0000000000e+00
 2  3  3     6.4664413932e+00
 3  1  1     0.0000000000e+00
 3  1  2     0.0000000000e+00
 3  1  3     1.1200205179e+01
 3  2  1     0.0000000000e+00
 3  2  2     0.0000000000e+00
 3  2  3     6.4664413932e+00
 3  3  1     1.2065827746e+01
 3  3  2     6.9662088087e+00
 3  3  3     0.0000000000e+00

    3
0.0000000000e+00 0.0000000000e+00 0.0000000000e+00
2.4672353023e+00 0.0000000000e+00 0.0000000000e+00
     1      1      1
 1  1  1    -1.1452550000e+01
 1  1  2     2.1599853435e+00
 1  1  3     0.0000000000e+00
 1  2  1    -2.9088283363e+00
 1  2  2     3.2597670449e+00
 1  2  3     0.0000000000e+00
 1  3  1     0.0000000000e+00
 1  3  2     0.0000000000e+00
 1  3  3     2.5406488782e+00
 2  1  1    -2.9088283363e+00
 2  1  2     3.2597670449e+00
 2  1  3     0.0000000000e+00
 2  2  1     3.6644693265e+00
 2  2  2    -1.4128650369e+00
 2  2  3     0.0000000000e+00
 2  3  1     0.0000000000e+00
 2  3  2     0.0000000000e+00
 2  3  3    -4.7101484294e-01
 3  1  1     0.0000000000e+00
 3  1  2     0.0000000000e+00
 3  1  3     2.5406488782e+00
 3  2  1     0.0000000000e+00
 3  2  2     0.0000000000e+00
 3  2  3    -4.7101484294e-01
 3  3  1    -2.3813430083e-01
 3  3  2    -6.5036402456e-01
 3  3  3     0.0000000000e+00

    4
0.0000000000e+00 0.0000000000e+00 0.0000000000e+00
-2.4672353023e+00 0.0000000000e+00 0.0000000000e+00
     1      1      1
 1  1  1     1.1452550000e+01
 1  1  2     2.1599853435e+00
 1  1  3     0.0000000000e+00
 1  2  1    -2.9088283363e+00
 1  2  2    -3.2597670449e+00
 1  2  3     0.0000000000e+00
 1  3  1     0.0000000000e+00
 1  3  2     0.0000000000e+00
 1  3  3    -2.5406488782e+00
 2  1  1    -2.9088283363e+00
 2  1  2    -3.2597670449e+00
 2  1  3     0.0000000000e+00
 2  2  1    -3.6644693265e+00
 2  2  2    -1.4128650369e+00
 2  2  3     0.0000000000e+00
 2  3  1     0.0000000000e+00
 2  3  2     0.0000000000e+00
 2  3  3    -4.7101484294e-01
 3  1  1     0.0000000000e+00
 3  1  2     0.0000000000e+00
 3  1  3    -2.5406488782e+00
 3  2  1     0.0000000000e+00
 3  2  2     0.0000000000e+00
 3  2  3    -4.7101484294e-01
 3  3  1     2.3813430083e-01
 3  3  2    -6.5036402456e-01
 3  3  3     0.0000000000e+00

    5
0.0000000000e+00 0.0000000000e+00 0.0000000000e+00
-2.4672353023e+00 0.0000000000e+00 0.0000000000e+00
     1      1      2
 1  1  1     1.0912377300e+02
 1  1  2    -7.5089508964e+01
 1  1  3     0.0000000000e+00
 1  2  1    -7.0549202231e+01
 1  2  2     3.3753242795e+01
 1  2  3     0.0000000000e+00
 1  3  1     0.0000000000e+00
 1  3  2     0.0000000000e+00
 1  3  3    -1.1200205179e+01
 2  1  1    -7.0549202231e+01
 2  1  2     3.3753242795e+01
 2  1  3     0.0000000000e+00
 2  2  1     4.1617284639e+01
 2  2  2    -1.1940880443e+01
 2  2  3     0.0000000000e+00
 2  3  1     0.0000000000e+00
 2  3  2     0.0000000000e+00
 2  3  3     6.4664413932e+00
 3  1  1     0.0000000000e+00
 3  1  2     0.0000000000e+00
 3  1  3    -1.1200205179e+01
 3  2  1     0.0000000000e+00
 3  2  2     0.0000000000e+00
 3  2  3     6.4664413932e+00
 3  3  1    -1.2065827746e+01
 3  3  2     6.9662088087e+00
 3  3  3     0.0000000000e+00

    6
0.0000000000e+00 0.0000000000e+00 0.0000000000e+00
-1.2336176511e+00 2.1366884218e+00 0.0000000000e+00
     1      1      1
 1  1  1    -6.7784075002e-01
 1  1  2    -3.4327226732e+00
 1  1  3     0.0000000000e+00
 1  2  1    -1.2487982946e+00
 1  2  2     8.5169282973e+00
 1  2  3     0.0000000000e+00
 1  3  1     0.0000000000e+00
 1  3  2     0.0000000000e+00
 1  3  3    -8.6241361440e-01
 2  1  1    -1.2487982946e+00
 2  1  2     8.5169282973e+00
 2  1  3     0.0000000000e+00
 2  2  1     3.9248557984e+00
 2  2  2    -3.6855129126e+00
 2  2  3     0.0000000000e+00
 2  3  1     0.0000000000e+00
 2  3  2     0.0000000000e+00
 2  3  3     2.4357738642e+00
 3  1  1     0.0000000000e+00
 3  1  2     0.0000000000e+00
 3  1  3    -8.6241361440e-01
 3  2  1     0.0000000000e+00
 3  2  2     0.0000000000e+00
 3  2  3     2.4357738642e+00
 3  3  1     6.8229892454e-01
 3  3  2     1.1895166087e-01
 3  3  3     0.0000000000e+00

    7
0.0000000000e+00 0.0000000000e+00 0.0000000000e+00
-1.2336176511e+00 2.1366884218e+00 0.0000000000e+00
     1      1      2
 1  1  1     0.0000000000e+00
 1  1  2     4.1998187922e+00
 1  1  3     0.0000000000e+00
 1  2  1    -3.7604049782e+00
 1  2  2     0.0000000000e+00
 1  2  3     0.0000000000e+00
 1  3  1     0.0000000000e+00
 1  3  2     0.0000000000e+00
 1  3  3     0.0000000000e+00
 2  1  1    -3.7604049782e+00
 2  1  2     0.0000000000e+00
 2  1  3     0.0000000000e+00
 2  2  1     0.0000000000e+00
 2  2  2    -3.9989760302e+00
 2  2  3     0.0000000000e+00
 2  3  1     0.0000000000e+00
 2  3  2     0.0000000000e+00
 2  3  3     4.0942617100e-01
 3  1  1     0.0000000000e+00
 3  1  2     0.0000000000e+00
 3  1  3     0.0000000000e+00
 3  2  1     0.0000000000e+00
 3  2  2     0.0000000000e+00
 3  2  3     4.0942617100e-01
 3  3  1     0.0000000000e+00
 3  3  2    -3.6440149424e-01
 3  3  3     0.0000000000e+00

    8
0.0000000000e+00 0.0000000000e+00 0.0000000000e+00
1.2336176511e+00 2.1366884218e+00 0.0000000000e+00
     1      1      1
 1  1  1     6.7784075002e-01
 1  1  2    -3.4327226732e+00
 1  1  3     0.0000000000e+00
 1  2  1    -1.2487982946e+00
 1  2  2    -8.5169282973e+00
 1  2  3     0.0000000000e+00
 1  3  1     0.0000000000e+00
 1  3  2     0.0000000000e+00
 1  3  3     8.6241361440e-01
 2  1  1    -1.2487982946e+00
 2  1  2    -8.5169282973e+00
 2  1  3     0.0000000000e+00
 2  2  1    -3.9248557984e+00
 2  2  2    -3.6855129126e+00
 2  2  3     0.0000000000e+00
 2  3  1     0.0000000000e+00
 2  3  2     0.0000000000e+00
 2  3  3     2.4357738642e+00
 3  1  1     0.0000000000e+00
 3  1  2     0.0000000000e+00
 3  1  3     8.6241361440e-01
 3  2  1     0.0000000000e+00
 3  2  2     0.0000000000e+00
 3  2  3     2.4357738642e+00
 3  3  1    -6.8229892454e-01
 3  3  2     1.1895166087e-01
 3  3  3     0.0000000000e+00

    9
0.0000000000e+00 0.0000000000e+00 0.0000000000e+00
1.2336176511e+00 -2.1366884218e+00 0.0000000000e+00
     1      1      1
 1  1  1     4.0970245060e+00
 1  1  2    -4.1086736256e-01
 1  1  3     0.0000000000e+00
 1  2  1     2.4740219387e+00
 1  2  2    -4.4507195022e+00
 1  2  3     0.0000000000e+00
 1  3  1     0.0000000000e+00
 1  3  2     0.0000000000e+00
 1  3  3     1.6782352638e+00
 2  1  1     2.4740219387e+00
 2  1  2    -4.4507195022e+00
 2  1  3     0.0000000000e+00
 2  2  1    -8.6380897194e+00
 2  2  2     6.7819825990e+00
 2  2  3     0.0000000000e+00
 2  3  1     0.0000000000e+00
 2  3  2     0.0000000000e+00
 2  3  3    -1.9647590213e+00
 3  1  1     0.0000000000e+00
 3  1  2     0.0000000000e+00
 3  1  3     1.6782352638e+00
 3  2  1     0.0000000000e+00
 3  2  2     0.0000000000e+00
 3  2  3    -1.9647590213e+00
 3  3  1     4.4416462371e-01
 3  3  2     5.3141236369e-01
 3  3  3     0.0000000000e+00

   10
0.0000000000e+00 0.0000000000e+00 0.0000000000e+00
1.2336176511e+00 -2.1366884218e+00 0.0000000000e+00
     1      1      2
 1  1  1    -3.3164269099e+00
 1  1  2    -1.8456650333e+00
 1  1  3     0.0000000000e+00
 1  2  1     2.1344468519e+00
 1  2  2    -3.4033942478e+00
 1  2  3     0.0000000000e+00
 1  3  1     0.0000000000e+00
 1  3  2     0.0000000000e+00
 1  3  3     3.5457346955e-01
 2  1  1     2.1344468519e+00
 2  1  2    -3.4033942478e+00
 2  1  3     0.0000000000e+00
 2  2  1     3.4903616698e+00
 2  2  2     1.7452436588e+00
 2  2  3     0.0000000000e+00
 2  3  1     0.0000000000e+00
 2  3  2     0.0000000000e+00
 2  3  3    -2.0471308550e-01
 3  1  1     0.0000000000e+00
 3  1  2     0.0000000000e+00
 3  1  3     3.5457346955e-01
 3  2  1     0.0000000000e+00
 3  2  2     0.0000000000e+00
 3  2  3    -2.0471308550e-01
 3  3  1    -3.1558095519e-01
 3  3  2     1.8220074712e-01
 3  3  3     0.0000000000e+00

   11
0.0000000000e+00 0.0000000000e+00 0.0000000000e+00
-3.7008529534e+00 -2.1366884218e+00 0.0000000000e+00
     1      1      2
 1  1  1     3.3164269099e+00
 1  1  2    -1.8456650333e+00
 1  1  3     0.0000000000e+00
 1  2  1     2.1344468519e+00
 1  2  2     3.4033942478e+00
 1  2  3     0.0000000000e+00
 1  3  1     0.0000000000e+00
 1  3  2     0.0000000000e+00
 1  3  3    -3.5457346955e-01
 2  1  1     2.1344468519e+00
 2  1  2     3.4033942478e+00
 2  1  3     0.0000000000e+00
 2  2  1    -3.4903616698e+00
 2  2  2     1.7452436588e+00
 2  2  3     0.0000000000e+00
 2  3  1     0.0000000000e+00
 2  3  2     0.0000000000e+00
 2  3  3    -2.0471308550e-01
 3  1  1     0.0000000000e+00
 3  1  2     0.0000000000e+00
 3  1  3    -3.5457346955e-01
 3  2  1     0.0000000000e+00
 3  2  2     0.0000000000e+00
 3  2  3    -2.0471308550e-01
 3  3  1     3.1558095519e-01
 3  3  2     1.8220074712e-01
 3  3  3     0.0000000000e+00

   12
0.0000000000e+00 0.0000000000e+00 0.0000000000e+00
-1.2336176511e+00 -2.1366884218e+00 0.0000000000e+00
     1      1      1
 1  1  1    -4.0970245060e+00
 1  1  2    -4.1086736256e-01
 1  1  3     0.0000000000e+00
 1  2  1     2.4740219387e+00
 1  2  2     4.4507195022e+00
 1  2  3     0.0000000000e+00
 1  3  1     0.0000000000e+00
 1  3  2     0.0000000000e+00
 1  3  3    -1.6782352638e+00
 2  1  1     2.4740219387e+00
 2  1  2     4.4507195022e+00
 2  1  3     0.0000000000e+00
 2  2  1     8.6380897194e+00
 2  2  2     6.7819825990e+00
 2  2  3     0.0000000000e+00
 2  3  1     0.0000000000e+00
 2  3  2     0.0000000000e+00
 2  3  3    -1.9647590213e+00
 3  1  1     0.0000000000e+00
 3  1  2     0.0000000000e+00
 3  1  3    -1.6782352638e+00
 3  2  1     0.0000000000e+00
 3  2  2     0.0000000000e+00
 3  2  3    -1.9647590213e+00
 3  3  1    -4.4416462371e-01
 3  3  2     5.3141236369e-01
 3  3  3     0.0000000000e+00

   13
0.0000000000e+00 0.0000000000e+00 0.0000000000e+00
-1.2336176511e+00 -2.1366884218e+00 0.0000000000e+00
     1      1      2
 1  1  1     0.0000000000e+00
 1  1  2    -3.0062565815e+00
 1  1  3     0.0000000000e+00
 1  2  1    -1.2086870048e+01
 1  2  2     0.0000000000e+00
 1  2  3     0.0000000000e+00
 1  3  1     0.0000000000e+00
 1  3  2     0.0000000000e+00
 1  3  3     0.0000000000e+00
 2  1  1    -1.2086870048e+01
 2  1  2     0.0000000000e+00
 2  1  3     0.0000000000e+00
 2  2  1     0.0000000000e+00
 2  2  2     1.7706703151e+02
 2  2  3     0.0000000000e+00
 2  3  1     0.0000000000e+00
 2  3  2     0.0000000000e+00
 2  3  3    -1.2932882786e+01
 3  1  1     0.0000000000e+00
 3  1  2     0.0000000000e+00
 3  1  3     0.0000000000e+00
 3  2  1     0.0000000000e+00
 3  2  2     0.0000000000e+00
 3  2  3    -1.2932882786e+01
 3  3  1     0.0000000000e+00
 3  3  2    -1.3932417617e+01
 3  3  3     0.0000000000e+00

   14
0.0000000000e+00 0.0000000000e+00 0.0000000000e+00
0.0000000000e+00 0.0000000000e+00 0.0000000000e+00
     1      2      1
 1  1  1    -1.0912377300e+02
 1  1  2    -7.0549202231e+01
 1  1  3     0.0000000000e+00
 1  2  1    -7.5089508964e+01
 1  2  2    -3.3753242795e+01
 1  2  3     0.0000000000e+00
 1  3  1     0.0000000000e+00
 1  3  2     0.0000000000e+00
 1  3  3     1.1200205179e+01
 2  1  1    -7.0549202231e+01
 2  1  2    -4.1617284639e+01
 2  1  3     0.0000000000e+00
 2  2  1    -3.3753242795e+01
 2  2  2    -1.1940880443e+01
 2  2  3     0.0000000000e+00
 2  3  1     0.0000000000e+00
 2  3  2     0.0000000000e+00
 2  3  3     6.4664413932e+00
 3  1  1     0.0000000000e+00
 3  1  2     0.0000000000e+00
 3  1  3     1.2065827746e+01
 3  2  1     0.0000000000e+00
 3  2  2     0.0000000000e+00
 3  2  3     6.9662088087e+00
 3  3  1     1.1200205179e+01
 3  3  2     6.4664413932e+00
 3  3  3     0.0000000000e+00

   15
0.0000000000e+00 0.0000000000e+00 0.0000000000e+00
0.0000000000e+00 0.0000000000e+00 0.0000000000e+00
     1      2      2
 1  1  1     1.0912377300e+02
 1  1  2     7.0549202231e+01
 1  1  3     0.0000000000e+00
 1  2  1     7.0549202231e+01
 1  2  2     4.1617284639e+01
 1  2  3     0.0000000000e+00
 1  3  1     0.0000000000e+00
 1  3  2     0.0000000000e+00
 1  3  3    -1.2065827746e+01
 2  1  1     7.5089508964e+01
 2  1  2     3.3753242795e+01
 2  1  3     0.0000000000e+00
 2  2  1     3.3753242795e+01
 2  2  2     1.1940880443e+01
 2  2  3     0.0000000000e+00
 2  3  1     0.0000000000e+00
 2  3  2     0.0000000000e+00
 2  3  3    -6.9662088087e+00
 3  1  1     0.0000000000e+00
 3  1  2     0.0000000000e+00
 3  1  3    -1.1200205179e+01
 3  2  1     0.0000000000e+00
 3  2  2     0.0000000000e+00
 3  2  3    -6.4664413932e+00
 3  3  1    -1.1200205179e+01
 3  3  2    -6.4664413932e+00
 3  3  3     0.0000000000e+00

   16
0.0000000000e+00 0.0000000000e+00 0.0000000000e+00
2.4672353023e+00 0.0000000000e+00 0.0000000000e+00
     1      2      1
 1  1  1     0.0000000000e+00
 1  1  2    -2.1277710458e-02
 1  1  3     0.0000000000e+00
 1  2  1     6.5295842311e+00
 1  2  2    -4.3334929052e+00
 1  2  3     0.0000000000e+00
 1  3  1     0.0000000000e+00
 1  3  2     0.0000000000e+00
 1  3  3    -9.8348293031e-01
 2  1  1    -2.1277710458e-02
 2  1  2     0.0000000000e+00
 2  1  3     0.0000000000e+00
 2  2  1     4.3334929052e+00
 2  2  2    -1.0322196965e+00
 2  2  3     0.0000000000e+00
 2  3  1     0.0000000000e+00
 2  3  2     0.0000000000e+00
 2  3  3     1.3741960393e+00
 3  1  1     0.0000000000e+00
 3  1  2     0.0000000000e+00
 3  1  3     0.0000000000e+00
 3  2  1     0.0000000000e+00
 3  2  2     0.0000000000e+00
 3  2  3    -1.2938369677e-01
 3  3  1     9.8348293031e-01
 3  3  2     1.3741960393e+00
 3  3  3     0.0000000000e+00

   17
0.0000000000e+00 0.0000000000e+00 0.0000000000e+00
-2.4672353023e+00 0.0000000000e+00 0.0000000000e+00
     1      2      2
 1  1  1     0.0000000000e+00
 1  1  2     2.1277710458e-02
 1  1  3     0.0000000000e+00
 1  2  1     2.1277710458e-02
 1  2  2     0.0000000000e+00
 1  2  3     0.0000000000e+00
 1  3  1     0.0000000000e+00
 1  3  2     0.0000000000e+00
 1  3  3     0.0000000000e+00
 2  1  1    -6.5295842311e+00
 2  1  2     4.3334929052e+00
 2  1  3     0.0000000000e+00
 2  2  1    -4.3334929052e+00
 2  2  2     1.0322196965e+00
 2  2  3     0.0000000000e+00
 2  3  1     0.0000000000e+00
 2  3  2     0.0000000000e+00
 2  3  3     1.2938369677e-01
 3  1  1     0.0000000000e+00
 3  1  2     0.0000000000e+00
 3  1  3     9.8348293031e-01
 3  2  1     0.0000000000e+00
 3  2  2     0.0000000000e+00
 3  2  3    -1.3741960393e+00
 3  3  1    -9.8348293031e-01
 3  3  2    -1.3741960393e+00
 3  3  3     0.0000000000e+00

   18
0.0000000000e+00 0.0000000000e+00 0.0000000000e+00
-1.2336176511e+00 2.1366884218e+00 0.0000000000e+00
     1      2      1
 1  1  1    -5.1881047614e-01
 1  1  2    -5.4601293825e-01
 1  1  3     0.0000000000e+00
 1  2  1     6.3952131676e-01
 1  2  2    -8.3532043064e-01
 1  2  3     0.0000000000e+00
 1  3  1     0.0000000000e+00
 1  3  2     0.0000000000e+00
 1  3  3     6.1414184283e-01
 2  1  1     1.5372527749e-01
 2  1  2    -3.9887351011e+00
 2  1  3     0.0000000000e+00
 2  2  1    -7.7366338102e-02
 2  2  2    -4.8802232217e-01
 2  2  3     0.0000000000e+00
 2  3  1     0.0000000000e+00
 2  3  2     0.0000000000e+00
 2  3  3    -8.1306893352e-01
 3  1  1     0.0000000000e+00
 3  1  2     0.0000000000e+00
 3  1  3    -4.6635457771e-01
 3  2  1     0.0000000000e+00
 3  2  2     0.0000000000e+00
 3  2  3    -1.4099628857e-01
 3  3  1    -3.7766504575e-01
 3  3  2     7.8644614491e-01
 3  3  3     0.0000000000e+00

   19
0.0000000000e+00 0.0000000000e+00 0.0000000000e+00
-1.2336176511e+00 2.1366884218e+00 0.0000000000e+00
     1      2      2
 1  1  1     2.1663367085e+00
 1  1  2    -1.4305894659e+00
 1  1  3     0.0000000000e+00
 1  2  1    -4.2431285066e-01
 1  2  2    -4.3765837069e-02
 1  2  3     0.0000000000e+00
 1  3  1     0.0000000000e+00
 1  3  2     0.0000000000e+00
 1  3  3     3.5528365815e-01
 2  1  1     2.5495224169e+00
 2  1  2    -1.1997614666e+00
 2  1  3     0.0000000000e+00
 2  2  1    -9.7274744970e-01
 2  2  2     1.4298760546e+00
 2  2  3     0.0000000000e+00
 2  3  1     0.0000000000e+00
 2  3  2     0.0000000000e+00
 2  3  3     3.3337676206e-01
 3  1  1     0.0000000000e+00
 3  1  2     0.0000000000e+00
 3  1  3     3.9706743898e-01
 3  2  1     0.0000000000e+00
 3  2  2     0.0000000000e+00
 3  2  3    -9.3839689743e-01
 3  3  1    -4.9224982596e-01
 3  3  2     7.2029059205e-01
 3  3  3     0.0000000000e+00

   20
0.0000000000e+00 0.0000000000e+00 0.0000000000e+00
1.2336176511e+00 2.1366884218e+00 0.0000000000e+00
     1      2      1
 1  1  1     7.3403656890e-01
 1  1  2     6.5832720457e+00
 1  1  3     0.0000000000e+00
 1  2  1    -4.4507391573e-01
 1  2  2    -3.8131385312e+00
 1  2  3     0.0000000000e+00
 1  3  1     0.0000000000e+00
 1  3  2     0.0000000000e+00
 1  3  3     6.9834722975e-01
 2  1  1    -9.2255793554e-01
 2  1  2     4.0268207075e+00
 2  1  3     0.0000000000e+00
 2  2  1     5.2035437397e-01
 2  2  2    -2.3036082801e+00
 2  2  3     0.0000000000e+00
 2  3  1     0.0000000000e+00
 2  3  2     0.0000000000e+00
 2  3  3    -1.5388192107e+00
 3  1  1     0.0000000000e+00
 3  1  2     0.0000000000e+00
 3  1  3    -1.1204956966e-01
 3  2  1     0.0000000000e+00
 3  2  2     0.0000000000e+00
 3  2  3     6.4691848383e-02
 3  3  1     1.6818301601e+00
 3  3  2     1.6462317138e-01
 3  3  3     0.0000000000e+00

   21
0.0000000000e+00 0.0000000000e+00 0.0000000000e+00
1.2336176511e+00 -2.1366884218e+00 0.0000000000e+00
     1      2      1
 1  1  1    -2.1663367085e+00
 1  1  2     1.4305894659e+00
 1  1  3     0.0000000000e+00
 1  2  1    -2.5495224169e+00
 1  2  2     1.1997614666e+00
 1  2  3     0.0000000000e+00
 1  3  1     0.0000000000e+00
 1  3  2     0.0000000000e+00
 1  3  3    -3.9706743898e-01
 2  1  1     4.2431285066e-01
 2  1  2     4.3765837069e-02
 2  1  3     0.0000000000e+00
 2  2  1     9.7274744970e-01
 2  2  2    -1.4298760546e+00
 2  2  3     0.0000000000e+00
 2  3  1     0.0000000000e+00
 2  3  2     0.0000000000e+00
 2  3  3     9.3839689743e-01
 3  1  1     0.0000000000e+00
 3  1  2     0.0000000000e+00
 3  1  3    -3.5528365815e-01
 3  2  1     0.0000000000e+00
 3  2  2     0.0000000000e+00
 3  2  3    -3.3337676206e-01
 3  3  1     4.9224982596e-01
 3  3  2    -7.2029059205e-01
 3  3  3     0.0000000000e+00

   22
0.0000000000e+00 0.0000000000e+00 0.0000000000e+00
1.2336176511e+00 -2.1366884218e+00 0.0000000000e+00
     1      2      2
 1  1  1     5.1881047614e-01
 1  1  2     5.4601293825e-01
 1  1  3     0.0000000000e+00
 1  2  1    -1.5372527749e-01
 1  2  2     3.9887351011e+00
 1  2  3     0.0000000000e+00
 1  3  1     0.0000000000e+00
 1  3  2     0.0000000000e+00
 1  3  3     4.6635457771e-01
 2  1  1    -6.3952131676e-01
 2  1  2     8.3532043064e-01
 2  1  3     0.0000000000e+00
 2  2  1     7.7366338102e-02
 2  2  2     4.8802232217e-01
 2  2  3     0.0000000000e+00
 2  3  1     0.0000000000e+00
 2  3  2     0.0000000000e+00
 2  3  3     1.4099628857e-01
 3  1  1     0.0000000000e+00
 3  1  2     0.0000000000e+00
 3  1  3    -6.1414184283e-01
 3  2  1     0.0000000000e+00
 3  2  2     0.0000000000e+00
 3  2  3     8.1306893352e-01
 3  3  1     3.7766504575e-01
 3  3  2    -7.8644614491e-01
 3  3  3     0.0000000000e+00

   23
0.0000000000e+00 0.0000000000e+00 0.0000000000e+00
-1.2336176511e+00 -2.1366884218e+00 0.0000000000e+00
     1      2      2
 1  1  1    -7.3403656890e-01
 1  1  2    -6.5832720457e+00
 1  1  3     0.0000000000e+00
 1  2  1     9.2255793554e-01
 1  2  2    -4.0268207075e+00
 1  2  3     0.0000000000e+00
 1  3  1     0.0000000000e+00
 1  3  2     0.0000000000e+00
 1  3  3     1.1204956966e-01
 2  1  1     4.4507391573e-01
 2  1  2     3.8131385312e+00
 2  1  3     0.0000000000e+00
 2  2  1    -5.2035437397e-01
 2  2  2     2.3036082801e+00
 2  2  3     0.0000000000e+00
 2  3  1     0.0000000000e+00
 2  3  2     0.0000000000e+00
 2  3  3    -6.4691848383e-02
 3  1  1     0.0000000000e+00
 3  1  2     0.0000000000e+00
 3  1  3    -6.9834722975e-01
 3  2  1     0.0000000000e+00
 3  2  2     0.0000000000e+00
 3  2  3     1.5388192107e+00
 3  3  1    -1.6818301601e+00
 3  3  2    -1.6462317138e-01
 3  3  3     0.0000000000e+00

   24
2.4672353023e+00 0.0000000000e+00 0.0000000000e+00
0.0000000000e+00 0.0000000000e+00 0.0000000000e+00
     1      1      1
 1  1  1    -1.1452550000e+01
 1  1  2    -2.9088283363e+00
 1  1  3     0.0000000000e+00
 1  2  1     2.1599853435e+00
 1  2  2     3.2597670449e+00
 1  2  3     0.0000000000e+00
 1  3  1     0.0000000000e+00
 1  3  2     0.0000000000e+00
 1  3  3     2.5406488782e+00
 2  1  1    -2.9088283363e+00
 2  1  2     3.6644693265e+00
 2  1  3     0.0000000000e+00
 2  2  1     3.2597670449e+00
 2  2  2    -1.4128650369e+00
 2  2  3     0.0000000000e+00
 2  3  1     0.0000000000e+00
 2  3  2     0.0000000000e+00
 2  3  3    -4.7101484294e-01
 3  1  1     0.0000000000e+00
 3  1  2     0.0000000000e+00
 3  1  3    -2.3813430083e-01
 3  2  1     0.0000000000e+00
 3  2  2     0.0000000000e+00
 3  2  3    -6.5036402456e-01
 3  3  1     2.5406488782e+00
 3  3  2    -4.7101484294e-01
 3  3  3     0.0000000000e+00

   25
2.4672353023e+00 0.0000000000e+00 0.0000000000e+00
0.0000000000e+00 0.0000000000e+00 0.0000000000e+00
     1      1      2
 1  1  1     0.0000000000e+00
 1  1  2     6.5295842311e+00
 1  1  3     0.0000000000e+00
 1  2  1    -2.1277710458e-02
 1  2  2    -4.3334929052e+00
 1  2  3     0.0000000000e+00
 1  3  1     0.0000000000e+00
 1  3  2     0.0000000000e+00
 1  3  3    -9.8348293031e-01
 2  1  1    -2.1277710458e-02
 2  1  2     4.3334929052e+00
 2  1  3     0.0000000000e+00
 2  2  1     0.0000000000e+00
 2  2  2    -1.0322196965e+00
 2  2  3     0.0000000000e+00
 2  3  1     0.0000000000e+00
 2  3  2     0.0000000000e+00
 2  3  3     1.3741960393e+00
 3  1  1     0.0000000000e+00
 3  1  2     0.0000000000e+00
 3  1  3     9.8348293031e-01
 3  2  1     0.0000000000e+00
 3  2  2     0.0000000000e+00
 3  2  3     1.3741960393e+00
 3  3  1     0.0000000000e+00
 3  3  2    -1.2938369677e-01
 3  3  3     0.0000000000e+00

   26
2.4672353023e+00 0.0000000000e+00 0.0000000000e+00
2.4672353023e+00 0.0000000000e+00 0.0000000000e+00
     1      1      1
 1  1  1     1.1452550000e+01
 1  1  2    -2.9088283363e+00
 1  1  3     0.0000000000e+00
 1  2  1    -2.9088283363e+00
 1  2  2    -3.6644693265e+00
 1  2  3     0.0000000000e+00
 1  3  1     0.0000000000e+00
 1  3  2     0.0000000000e+00
 1  3  3     2.3813430083e-01
 2  1  1     2.1599853435e+00
 2  1  2    -3.2597670449e+00
 2  1  3     0.0000000000e+00
 2  2  1    -3.2597670449e+00
 2  2  2    -1.4128650369e+00
 2  2  3     0.0000000000e+00
 2  3  1     0.0000000000e+00
 2  3  2     0.0000000000e+00
 2  3  3    -6.5036402456e-01
 3  1  1     0.0000000000e+00
 3  1  2     0.0000000000e+00
 3  1  3    -2.5406488782e+00
 3  2  1     0.0000000000e+00
 3  2  2     0.0000000000e+00
 3  2  3    -4.7101484294e-01
 3  3  1    -2.5406488782e+00
 3  3  2    -4.7101484294e-01
 3  3  3     0.0000000000e+00

   27
2.4672353023e+00 0.0000000000e+00 0.0000000000e+00
1.2336176511e+00 2.1366884218e+00 0.0000000000e+00
     1      1      1
 1  1  1     0.0000000000e+00
 1  1  2    -4.8470189411e+00
 1  1  3     0.0000000000e+00
 1  2  1     1.7857036593e+00
 1  2  2     3.8294041302e+00
 1  2  3     0.0000000000e+00
 1  3  1     0.0000000000e+00
 1  3  2     0.0000000000e+00
 1  3  3    -1.0204529652e-02
 2  1  1     1.7857036593e+00
 2  1  2    -3.8294041302e+00
 2  1  3     0.0000000000e+00
 2  2  1     0.0000000000e+00
 2  2  2     4.2520386335e-01
 2  2  3     0.0000000000e+00
 2  3  1     0.0000000000e+00
 2  3  2     0.0000000000e+00
 2  3  3    -5.8915878670e-03
 3  1  1     0.0000000000e+00
 3  1  2     0.0000000000e+00
 3  1  3     1.0204529652e-02
 3  2  1     0.0000000000e+00
 3  2  2     0.0000000000e+00
 3  2  3    -5.8915878670e-03
 3  3  1     0.0000000000e+00
 3  3  2     1.1783175734e-02
 3  3  3     0.0000000000e+00

   28
2.4672353023e+00 0.0000000000e+00 0.0000000000e+00
1.2336176511e+00 -2.1366884218e+00 0.0000000000e+00
     1      1      1
 1  1  1     0.0000000000e+00
 1  1  2    -7.8779481161e-01
 1  1  3     0.0000000000e+00
 1  2  1    -6.5585228608e-01
 1  2  2    -7.6177051663e-02
 1  2  3     0.0000000000e+00
 1  3  1     0.0000000000e+00
 1  3  2     0.0000000000e+00
 1  3  3     9.6028458328e-02
 2  1  1    -6.5585228608e-01
 2  1  2     7.6177051663e-02
 2  1  3     0.0000000000e+00
 2  2  1     0.0000000000e+00
 2  2  2     6.9983311017e-01
 2  2  3     0.0000000000e+00
 2  3  1     0.0000000000e+00
 2  3  2     0.0000000000e+00
 2  3  3    -5.5442055562e-02
 3  1  1     0.0000000000e+00
 3  1  2     0.0000000000e+00
 3  1  3    -9.6028458328e-02
 3  2  1     0.0000000000e+00
 3  2  2     0.0000000000e+00
 3  2  3    -5.5442055562e-02
 3  3  1     0.0000000000e+00
 3  3  2     1.1088411112e-01
 3  3  3     0.0000000000e+00

   29
2.4672353023e+00 0.0000000000e+00 0.0000000000e+00
1.2336176511e+00 -2.1366884218e+00 0.0000000000e+00
     1      1      2
 1  1  1    -1.6394324062e+00
 1  1  2     2.4614430931e+00
 1  1  3     0.0000000000e+00
 1  2  1    -2.6596135228e-02
 1  2  2     2.2368447674e+00
 1  2  3     0.0000000000e+00
 1  3  1     0.0000000000e+00
 1  3  2     0.0000000000e+00
 1  3  3    -8.6991487171e-01
 2  1  1    -3.3313453472e-01
 2  1  2     1.2518766579e+00
 2  1  3     0.0000000000e+00
 2  2  1    -7.4554238302e-01
 2  2  2     1.3664563979e+00
 2  2  3     0.0000000000e+00
 2  3  1     0.0000000000e+00
 2  3  2     0.0000000000e+00
 2  3  3    -6.6155552857e-02
 3  1  1     0.0000000000e+00
 3  1  2     0.0000000000e+00
 3  1  3     1.0112092818e+00
 3  2  1     0.0000000000e+00
 3  2  2     0.0000000000e+00
 3  2  3    -1.2532796391e-01
 3  3  1    -1.1107091956e-01
 3  3  2     4.7437305064e-01
 3  3  3     0.0000000000e+00

   30
2.4672353023e+00 0.0000000000e+00 0.0000000000e+00
-1.2336176511e+00 -2.1366884218e+00 0.0000000000e+00
     1      1      2
 1  1  1     1.6394324062e+00
 1  1  2     2.4614430931e+00
 1  1  3     0.0000000000e+00
 1  2  1    -3.3313453472e-01
 1  2  2    -1.2518766579e+00
 1  2  3     0.0000000000e+00
 1  3  1     0.0000000000e+00
 1  3  2     0.0000000000e+00
 1  3  3    -1.0112092818e+00
 2  1  1    -2.6596135228e-02
 2  1  2    -2.2368447674e+00
 2  1  3     0.0000000000e+00
 2  2  1     7.4554238302e-01
 2  2  2     1.3664563979e+00
 2  2  3     0.0000000000e+00
 2  3  1     0.0000000000e+00
 2  3  2     0.0000000000e+00
 2  3  3    -1.2532796391e-01
 3  1  1     0.0000000000e+00
 3  1  2     0.0000000000e+00
 3  1  3     8.6991487171e-01
 3  2  1     0.0000000000e+00
 3  2  2     0.0000000000e+00
 3  2  3    -6.6155552857e-02
 3  3  1     1.1107091956e-01
 3  3  2     4.7437305064e-01
 3  3  3     0.0000000000e+00

   31
-2.4672353023e+00 0.0000000000e+00 0.0000000000e+00
0.0000000000e+00 0.0000000000e+00 0.0000000000e+00
     1      1      1
 1  1  1     1.1452550000e+01
 1  1  2    -2.9088283363e+00
 1  1  3     0.0000000000e+00
 1  2  1     2.1599853435e+00
 1  2  2    -3.2597670449e+00
 1  2  3     0.0000000000e+00
 1  3  1     0.0000000000e+00
 1  3  2     0.0000000000e+00
 1  3  3    -2.5406488782e+00
 2  1  1    -2.9088283363e+00
 2  1  2    -3.6644693265e+00
 2  1  3     0.0000000000e+00
 2  2  1    -3.2597670449e+00
 2  2  2    -1.4128650369e+00
 2  2  3     0.0000000000e+00
 2  3  1     0.0000000000e+00
 2  3  2     0.0000000000e+00
 2  3  3    -4.7101484294e-01
 3  1  1     0.0000000000e+00
 3  1  2     0.0000000000e+00
 3  1  3     2.3813430083e-01
 3  2  1     0.0000000000e+00
 3  2  2     0.0000000000e+00
 3  2  3    -6.5036402456e-01
 3  3  1    -2.5406488782e+00
 3  3  2    -4.7101484294e-01
 3  3  3     0.0000000000e+00

   32
-2.4672353023e+00 0.0000000000e+00 0.0000000000e+00
-2.4672353023e+00 0.0000000000e+00 0.0000000000e+00
     1      1      1
 1  1  1    -1.1452550000e+01
 1  1  2    -2.9088283363e+00
 1  1  3     0.0000000000e+00
 1  2  1    -2.9088283363e+00
 1  2  2     3.6644693265e+00
 1  2  3     0.0000000000e+00
 1  3  1     0.0000000000e+00
 1  3  2     0.0000000000e+00
 1  3  3    -2.3813430083e-01
 2  1  1     2.1599853435e+00
 2  1  2     3.2597670449e+00
 2  1  3     0.0000000000e+00
 2  2  1     3.2597670449e+00
 2  2  2    -1.4128650369e+00
 2  2  3     0.0000000000e+00
 2  3  1     0.0000000000e+00
 2  3  2     0.0000000000e+00
 2  3  3    -6.5036402456e-01
 3  1  1     0.0000000000e+00
 3  1  2     0.0000000000e+00
 3  1  3     2.5406488782e+00
 3  2  1     0.0000000000e+00
 3  2  2     0.0000000000e+00