<?xml version="1.0" encoding="ISO-8859-1"?>
<modeling>
 <generator>
  <i name="program" type="string">vasp </i>
  <i name="version" type="string">6.4.1  </i>
  <i name="subversion" type="string">05Apr23 (build Feb 12 2025 00:37:39) complex                          parallel </i>
  <i name="platform" type="string">LinuxIFC </i>
  <i name="date" type="string">2025 02 14 </i>
  <i name="time" type="string">05:42:45 </i>
 </generator>
 <incar>
  <i type="string" name="SYSTEM">SCF</i>
  <i type="int" name="ISTART">     0</i>
  <i type="int" name="ICHARG">     2</i>
  <i type="int" name="NELM">    60</i>
  <i type="int" name="NELMIN">     6</i>
  <i name="EDIFF">      0.00000100</i>
  <i name="EDIFFG">     -0.00000100</i>
  <i name="ENCUT">    600.00000000</i>
  <i type="string" name="LREAL">Auto</i>
  <i type="int" name="ISMEAR">     0</i>
  <i name="SIGMA">      0.05000000</i>
  <i type="logical" name="LWAVE"> F  </i>
  <i type="logical" name="LCHARG"> F  </i>
 </incar>
 <primitive_cell>
  <structure name="primitive_cell" >
   <crystal>
    <varray name="basis" >
     <v>       7.40170591       0.00000000       0.00000000 </v>
     <v>      -3.70085295       6.41006527       0.00000000 </v>
     <v>       0.00000000       0.00000000      20.00000000 </v>
    </varray>
    <i name="volume">    948.90835877 </i>
    <varray name="rec_basis" >
     <v>       0.13510399       0.07800233       0.00000000 </v>
     <v>       0.00000000       0.15600465       0.00000000 </v>
     <v>       0.00000000       0.00000000       0.05000000 </v>
    </varray>
   </crystal>
   <varray name="positions" >
    <v>       0.99729792       0.00000000       0.50000000 </v>
    <v>       0.33333333       0.00000000       0.50000000 </v>
    <v>       0.66666667       0.00000000       0.50000000 </v>
    <v>       1.00000000       0.33333333       0.50000000 </v>
    <v>       0.33333333       0.33333333       0.50000000 </v>
    <v>       0.66666667       0.33333333       0.50000000 </v>
    <v>       1.00000000       0.66666667       0.50000000 </v>
    <v>       0.33333333       0.66666667       0.50000000 </v>
    <v>       0.66666667       0.66666667       0.50000000 </v>
    <v>       0.22222222       0.11111111       0.50000000 </v>
    <v>       0.55555556       0.11111111       0.50000000 </v>
    <v>       0.88888889       0.11111111       0.50000000 </v>
    <v>       0.22222222       0.44444444       0.50000000 </v>
    <v>       0.55555556       0.44444444       0.50000000 </v>
    <v>       0.88888889       0.44444444       0.50000000 </v>
    <v>       0.22222222       0.77777778       0.50000000 </v>
    <v>       0.55555556       0.77777778       0.50000000 </v>
    <v>       0.88888889       0.77777778       0.50000000 </v>
   </varray>
  </structure>
  <varray name="primitive_index" >
   <v type="int" >        1 </v>
   <v type="int" >        2 </v>
   <v type="int" >        3 </v>
   <v type="int" >        4 </v>
   <v type="int" >        5 </v>
   <v type="int" >        6 </v>
   <v type="int" >        7 </v>
   <v type="int" >        8 </v>
   <v type="int" >        9 </v>
   <v type="int" >       10 </v>
   <v type="int" >       11 </v>
   <v type="int" >       12 </v>
   <v type="int" >       13 </v>
   <v type="int" >       14 </v>
   <v type="int" >       15 </v>
   <v type="int" >       16 </v>
   <v type="int" >       17 </v>
   <v type="int" >       18 </v>
  </varray>
 </primitive_cell>
 <kpoints>
  <generation param="Gamma">
   <v type="int" name="divisions">       7        7        1 </v>
   <v name="usershift">      0.00000000       0.00000000       0.00000000 </v>
   <v name="genvec1">      0.14285714       0.00000000       0.00000000 </v>
   <v name="genvec2">      0.00000000       0.14285714       0.00000000 </v>
   <v name="genvec3">      0.00000000       0.00000000       1.00000000 </v>
   <v name="shift">      0.00000000       0.00000000       0.00000000 </v>
  </generation>
  <varray name="kpointlist" >
   <v>       0.00000000       0.00000000       0.00000000 </v>
   <v>       0.14285714       0.00000000       0.00000000 </v>
   <v>       0.00000000       0.14285714       0.00000000 </v>
   <v>      -0.14285714       0.14285714       0.00000000 </v>
   <v>       0.28571429       0.00000000       0.00000000 </v>
   <v>       0.00000000       0.28571429       0.00000000 </v>
   <v>      -0.28571429       0.28571429       0.00000000 </v>
   <v>       0.42857143       0.00000000       0.00000000 </v>
   <v>       0.00000000       0.42857143       0.00000000 </v>
   <v>      -0.42857143       0.42857143       0.00000000 </v>
   <v>       0.14285714       0.14285714       0.00000000 </v>
   <v>      -0.14285714       0.28571429       0.00000000 </v>
   <v>      -0.28571429       0.14285714       0.00000000 </v>
   <v>       0.28571429       0.14285714       0.00000000 </v>
   <v>      -0.14285714       0.42857143       0.00000000 </v>
   <v>      -0.42857143       0.28571429       0.00000000 </v>
   <v>      -0.28571429       0.42857143       0.00000000 </v>
   <v>       0.14285714       0.28571429       0.00000000 </v>
   <v>       0.42857143      -0.14285714       0.00000000 </v>
   <v>       0.42857143       0.14285714       0.00000000 </v>
   <v>      -0.14285714      -0.42857143       0.00000000 </v>
   <v>       0.42857143       0.42857143       0.00000000 </v>
   <v>       0.28571429       0.28571429       0.00000000 </v>
   <v>      -0.28571429      -0.42857143       0.00000000 </v>
   <v>       0.42857143       0.28571429       0.00000000 </v>
  </varray>
  <varray name="weights" >
   <v>       0.02040816 </v>
   <v>       0.04081633 </v>
   <v>       0.04081633 </v>
   <v>       0.04081633 </v>
   <v>       0.04081633 </v>
   <v>       0.04081633 </v>
   <v>       0.04081633 </v>
   <v>       0.04081633 </v>
   <v>       0.04081633 </v>
   <v>       0.04081633 </v>
   <v>       0.04081633 </v>
   <v>       0.04081633 </v>
   <v>       0.04081633 </v>
   <v>       0.04081633 </v>
   <v>       0.04081633 </v>
   <v>       0.04081633 </v>
   <v>       0.04081633 </v>
   <v>       0.04081633 </v>
   <v>       0.04081633 </v>
   <v>       0.04081633 </v>
   <v>       0.04081633 </v>
   <v>       0.04081633 </v>
   <v>       0.04081633 </v>
   <v>       0.04081633 </v>
   <v>       0.04081633 </v>
  </varray>
 </kpoints>
 <parameters>
  <separator name="general" >
   <i type="string" name="SYSTEM">SCF</i>
   <i type="logical" name="LCOMPAT"> F  </i>
  </separator>
  <separator name="electronic" >
   <i type="string" name="PREC">normal</i>
   <i name="ENMAX">    600.00000000</i>
   <i name="ENAUG">    644.87300000</i>
   <i name="EDIFF">      0.00000100</i>
   <i type="int" name="IALGO">    38</i>
   <i type="int" name="IWAVPR">    10</i>
   <i type="int" name="NBANDS">    46</i>
   <i type="int" name="NBANDSLOW">    -1</i>
   <i type="int" name="NBANDSHIGH">    -1</i>
   <i name="NELECT">     72.00000000</i>
   <i type="int" name="TURBO">     0</i>
   <i type="int" name="IRESTART">     0</i>
   <i type="int" name="NREBOOT">     0</i>
   <i type="int" name="NMIN">     0</i>
   <i name="EREF">      0.00000000</i>
   <separator name="electronic smearing" >
    <i type="int" name="ISMEAR">     0</i>
    <i name="SIGMA">      0.05000000</i>
    <i name="KSPACING">      0.50000000</i>
    <i type="logical" name="KGAMMA"> T  </i>
    <i type="logical" name="KBLOWUP"> T  </i>
   </separator>
   <separator name="electronic projectors" >
    <i type="logical" name="LREAL"> T  </i>
    <v name="ROPT">     -0.00050000</v>
    <i type="int" name="LMAXPAW">  -100</i>
    <i type="int" name="LMAXMIX">     2</i>
    <i type="logical" name="NLSPLINE"> F  </i>
   </separator>
   <separator name="electronic startup" >
    <i type="int" name="ISTART">     0</i>
    <i type="int" name="ICHARG">     2</i>
    <i type="int" name="INIWAV">     1</i>
   </separator>
   <separator name="electronic spin" >
    <i type="int" name="ISPIN">     1</i>
    <i type="logical" name="LNONCOLLINEAR"> F  </i>
    <v name="MAGMOM">      1.00000000      1.00000000      1.00000000      1.00000000      1.00000000      1.00000000      1.00000000      1.00000000      1.00000000      1.00000000      1.00000000      1.00000000      1.00000000      1.00000000      1.00000000      1.00000000      1.00000000      1.00000000</v>
    <i name="NUPDOWN">     -1.00000000</i>
    <i type="logical" name="LSORBIT"> F  </i>
    <v name="SAXIS">      0.00000000      0.00000000      1.00000000</v>
    <i type="logical" name="LSPIRAL"> F  </i>
    <v name="QSPIRAL">      0.00000000      0.00000000      0.00000000</v>
    <i type="logical" name="LZEROZ"> F  </i>
   </separator>
   <separator name="electronic exchange-correlation" >
    <i type="logical" name="LASPH"> F  </i>
    <i type="logical" name="LMETAGGA"> F  </i>
   </separator>
   <separator name="electronic convergence" >
    <i type="int" name="NELM">    60</i>
    <i type="int" name="NELMDL">    -5</i>
    <i type="int" name="NELMIN">     6</i>
    <i name="ENINI">    600.00000000</i>
    <separator name="electronic convergence detail" >
     <i type="logical" name="LDIAG"> T  </i>
     <i type="logical" name="LSUBROT"> F  </i>
     <i name="WEIMIN">      0.00000000</i>
     <i name="EBREAK">      0.00000000</i>
     <i name="DEPER">      0.30000000</i>
     <i type="int" name="NRMM">     4</i>
     <i name="TIME">      0.40000000</i>
    </separator>
   </separator>
   <separator name="electronic mixer" >
    <i name="AMIX">      0.40000000</i>
    <i name="BMIX">      1.00000000</i>
    <i name="AMIN">      0.10000000</i>
    <i name="AMIX_MAG">      1.60000000</i>
    <i name="BMIX_MAG">      1.00000000</i>
    <separator name="electronic mixer details" >
     <i type="int" name="IMIX">     4</i>
     <i type="logical" name="MIXFIRST"> F  </i>
     <i type="int" name="MAXMIX">   -45</i>
     <i name="WC">    100.00000000</i>
     <i type="int" name="INIMIX">     1</i>
     <i type="int" name="MIXPRE">     1</i>
     <i type="int" name="MREMOVE">     5</i>
    </separator>
   </separator>
   <separator name="electronic dipolcorrection" >
    <i type="logical" name="LDIPOL"> F  </i>
    <i type="logical" name="LMONO"> F  </i>
    <i type="int" name="IDIPOL">     0</i>
    <i name="EPSILON">      1.00000000</i>
    <v name="DIPOL">   -100.00000000   -100.00000000   -100.00000000</v>
    <i name="EFIELD">      0.00000000</i>
   </separator>
  </separator>
  <separator name="grids" >
   <i type="int" name="NGX">    48</i>
   <i type="int" name="NGY">    48</i>
   <i type="int" name="NGZ">   120</i>
   <i type="int" name="NGXF">    96</i>
   <i type="int" name="NGYF">    96</i>
   <i type="int" name="NGZF">   240</i>
   <i type="logical" name="ADDGRID"> F  </i>
  </separator>
  <separator name="ionic" >
   <i type="int" name="NSW">     0</i>
   <i type="int" name="IBRION">    -1</i>
   <i type="int" name="MDALGO">     0</i>
   <i type="int" name="ISIF">     2</i>
   <i name="PSTRESS">      0.00000000</i>
   <i name="EDIFFG">     -0.00000100</i>
   <i type="int" name="NFREE">     0</i>
   <i name="POTIM">      0.50000000</i>
   <i name="SMASS">     -3.00000000</i>
   <i name="SCALEE">      1.00000000</i>
  </separator>
  <separator name="ionic md" >
   <i name="TEBEG">      0.00010000</i>
   <i name="TEEND">      0.00010000</i>
   <i type="int" name="NBLOCK">     1</i>
   <i type="int" name="KBLOCK">     1</i>
   <i type="int" name="NPACO">   256</i>
   <i name="APACO">     10.00000000</i>
  </separator>
  <separator name="symmetry" >
   <i type="int" name="ISYM">     2</i>
   <i name="SYMPREC">      0.00001000</i>
  </separator>
  <separator name="dos" >
   <i type="int" name="LORBIT">     0</i>
   <v name="RWIGS">     -1.00000000</v>
   <i type="int" name="NEDOS">   301</i>
   <i name="EMIN">     10.00000000</i>
   <i name="EMAX">    -10.00000000</i>
   <i name="EFERMI">      0.00000000</i>
  </separator>
  <separator name="writing" >
   <i type="int" name="NWRITE">     2</i>
   <i type="logical" name="LWAVE"> F  </i>
   <i type="logical" name="LDOWNSAMPLE"> F  </i>
   <i type="logical" name="LCHARG"> F  </i>
   <i type="logical" name="LPARD"> F  </i>
   <i type="logical" name="LVTOT"> F  </i>
   <i type="logical" name="LVHAR"> F  </i>
   <i type="logical" name="LELF"> F  </i>
   <i type="logical" name="LOPTICS"> F  </i>
   <v name="STM">      0.00000000      0.00000000      0.00000000      0.00000000      0.00000000      0.00000000      0.00000000</v>
  </separator>
  <separator name="performance" >
   <i type="int" name="NPAR">     2</i>
   <i type="int" name="NSIM">     4</i>
   <i type="int" name="NBLK">    -1</i>
   <i type="logical" name="LPLANE"> T  </i>
   <i type="logical" name="LSCALAPACK"> T  </i>
   <i type="logical" name="LSCAAWARE"> F  </i>
   <i type="logical" name="LSCALU"> F  </i>
   <i type="logical" name="LASYNC"> F  </i>
   <i type="logical" name="LORBITALREAL"> F  </i>
  </separator>
  <separator name="miscellaneous" >
   <i type="int" name="IDIOT">     3</i>
   <i type="int" name="PHON_NSTRUCT">    -1</i>
   <i type="logical" name="LMUSIC"> F  </i>
   <v name="POMASS">     12.01100000</v>
   <v name="DARWINR">      0.00000000</v>
   <v name="DARWINV">      1.00000000</v>
   <i type="logical" name="LCORR"> T  </i>
  </separator>
  <i type="logical" name="GGA_COMPAT"> T  </i>
  <i type="logical" name="LBERRY"> F  </i>
  <i type="int" name="ICORELEVEL">     0</i>
  <i type="logical" name="LDAU"> F  </i>
  <i type="int" name="I_CONSTRAINED_M">     0</i>
  <separator name="electronic exchange-correlation" >
   <i type="string" name="GGA">--</i>
   <i type="int" name="VOSKOWN">     0</i>
   <i type="logical" name="LHFCALC"> F  </i>
   <i type="string" name="PRECFOCK"></i>
   <i type="logical" name="LSYMGRAD"> F  </i>
   <i type="logical" name="LHFONE"> F  </i>
   <i type="logical" name="LRHFCALC"> F  </i>
   <i type="logical" name="LTHOMAS"> F  </i>
   <i type="logical" name="LMODELHF"> F  </i>
   <i type="logical" name="LFOCKACE"> F  </i>
   <i name="ENCUT4O">     -1.00000000</i>
   <i type="int" name="EXXOEP">     0</i>
   <i type="int" name="FOURORBIT">     0</i>
   <i name="AEXX">      0.00000000</i>
   <i name="HFALPHA">      0.00000000</i>
   <i name="MCALPHA">      0.00000000</i>
   <i name="ALDAX">      1.00000000</i>
   <i name="AGGAX">      1.00000000</i>
   <i name="ALDAC">      1.00000000</i>
   <i name="AGGAC">      1.00000000</i>
   <i type="int" name="NKREDX">     1</i>
   <i type="int" name="NKREDY">     1</i>
   <i type="int" name="NKREDZ">     1</i>
   <i type="logical" name="SHIFTRED"> F  </i>
   <i type="logical" name="ODDONLY"> F  </i>
   <i type="logical" name="EVENONLY"> F  </i>
   <i type="int" name="LMAXFOCK">     0</i>
   <i type="int" name="NMAXFOCKAE">     0</i>
   <i type="logical" name="LFOCKAEDFT"> F  </i>
   <i name="HFSCREEN">      0.00000000</i>
   <i name="HFSCREENC">      0.00000000</i>
   <i type="int" name="NBANDSGWLOW">     0</i>
  </separator>
  <separator name="vdW DFT" >
   <i type="logical" name="LUSE_VDW"> F  </i>
   <i type="int" name="IVDW_NL">     1</i>
   <i type="logical" name="LSPIN_VDW"> F  </i>
   <i name="Zab_VDW">     -0.84910000</i>
   <i name="PARAM1">      0.12340000</i>
   <i name="PARAM2">      1.00000000</i>
   <i name="PARAM3">      0.00000000</i>
  </separator>
  <separator name="model GW" >
   <i type="int" name="MODEL_GW">     0</i>
   <i name="MODEL_EPS0">     31.63027863</i>
   <i name="MODEL_ALPHA">      1.00000000</i>
  </separator>
  <separator name="linear response parameters" >
   <i type="logical" name="LEPSILON"> F  </i>
   <i type="logical" name="LRPA"> F  </i>
   <i type="logical" name="LNABLA"> F  </i>
   <i type="logical" name="LVEL"> F  </i>
   <i name="CSHIFT">      0.10000000</i>
   <i name="OMEGAMAX">     -1.00000000</i>
   <i name="DEG_THRESHOLD">      0.00200000</i>
   <i name="RTIME">     -0.10000000</i>
   <i name="WPLASMAI">      0.00000000</i>
   <v name="DFIELD">      0.00000000      0.00000000      0.00000000</v>
   <v name="WPLASMA">      0.00000000      0.00000000      0.00000000      0.00000000      0.00000000      0.00000000      0.00000000      0.00000000      0.00000000</v>
  </separator>
  <separator name="orbital magnetization" >
   <i type="logical" name="NUCIND"> F  </i>
   <v name="MAGPOS">      0.00000000      0.00000000      0.00000000</v>
   <i type="logical" name="LNICSALL"> T  </i>
   <i type="logical" name="ORBITALMAG"> F  </i>
   <i type="logical" name="LMAGBLOCH"> F  </i>
   <i type="logical" name="LCHIMAG"> F  </i>
   <i type="logical" name="LGAUGE"> T  </i>
   <i type="int" name="MAGATOM">     0</i>
   <v name="MAGDIPOL">      0.00000000      0.00000000      0.00000000</v>
   <v name="AVECCONST">      0.00000000      0.00000000      0.00000000</v>
  </separator>
  <separator name="response functions" >
   <i type="logical" name="LALL_IN_ONE"> F  </i>
   <i type="int" name="IALL_IN_ONE">    -1</i>
   <i type="int" name="NBANDS_WAVE">    -1</i>
   <i type="logical" name="LFINITE_TEMPERATURE"> F  </i>
   <i type="logical" name="LADDER"> F  </i>
   <i type="logical" name="LRPAFORCE"> F  </i>
   <i type="logical" name="LFXC"> F  </i>
   <i type="logical" name="LHARTREE"> T  </i>
   <i type="int" name="IBSE">     0</i>
   <v type="int" name="KPOINT">    -1     0     0     0</v>
   <i type="logical" name="LTCTC"> F  </i>
   <i type="logical" name="LTCTE"> F  </i>
   <i type="logical" name="LTETE"> F  </i>
   <i type="logical" name="LTRIPLET"> F  </i>
   <i type="logical" name="LFXCEPS"> F  </i>
   <i type="logical" name="LFXHEG"> F  </i>
   <i type="int" name="NATURALO">     2</i>
   <i type="logical" name="LHOLEGF"> F  </i>
   <i type="logical" name="L2ORDER"> F  </i>
   <i type="logical" name="LDMP1"> F  </i>
   <i type="logical" name="LMP2LT"> F  </i>
   <i type="logical" name="LSMP2LT"> F  </i>
   <i type="logical" name="LGWLF"> F  </i>
   <i name="ENCUTGW">     -1.60000002</i>
   <i name="ENCUTGWSOFT">     -1.60000002</i>
   <i name="ENCUTLF">     -1.00000000</i>
   <i type="logical" name="LESF_SPLINES"> F  </i>
   <i type="int" name="LMAXMP2">    -1</i>
   <i name="SCISSOR">      0.00000000</i>
   <i type="int" name="NOMEGA">     0</i>
   <i type="int" name="NOMEGAR">     0</i>
   <i type="int" name="NBANDSGW">    -1</i>
   <i type="int" name="NBANDSO">    -1</i>
   <i type="int" name="NBANDSV">    -1</i>
   <i type="int" name="NELMGW">     1</i>
   <i type="int" name="NELMHF">     1</i>
   <i type="int" name="DIM">     3</i>
   <i type="int" name="IESPILON">     4</i>
   <i type="int" name="ANTIRES">     0</i>
   <i name="OMEGAMAX">    -30.00000000</i>
   <i name="OMEGAMIN">    -30.00000000</i>
   <i name="OMEGATL">   -200.00000000</i>
   <i type="int" name="OMEGAGRID">     0</i>
   <i name="CSHIFT">     -0.10000000</i>
   <i type="logical" name="LSELFENERGY"> F  </i>
   <i type="logical" name="LSPECTRAL"> F  </i>
   <i type="logical" name="LSPECTRALGW"> F  </i>
   <i type="logical" name="LSINGLES"> F  </i>
   <i type="logical" name="LFERMIGW"> F  </i>
   <i type="logical" name="ODDONLYGW"> F  </i>
   <i type="logical" name="EVENONLYGW"> F  </i>
   <i type="int" name="NKREDLFX">     1</i>
   <i type="int" name="NKREDLFY">     1</i>
   <i type="int" name="NKREDLFZ">     1</i>
   <i type="int" name="MAXMEM">  2800</i>
   <i type="int" name="TELESCOPE">     0</i>
   <i type="int" name="NTAUPAR">    -1</i>
   <i type="int" name="NOMEGAPAR">    -1</i>
   <i name="DAMP_NEWTON">      0.80000001</i>
   <i name="LAMBDA">      1.00000000</i>
  </separator>
  <separator name="External order field" >
   <i name="OFIELD_KAPPA">      0.00000000</i>
   <v name="OFIELD_K">      0.00000000      0.00000000      0.00000000</v>
   <i name="OFIELD_Q6_NEAR">      0.00000000</i>
   <i name="OFIELD_Q6_FAR">      0.00000000</i>
   <i name="OFIELD_A">      0.00000000</i>
  </separator>
  <separator name="optional k-points parameters" >
   <i type="int" name="KPOINTS_OPT_MODE">     1</i>
   <i type="logical" name="LKPOINTS_OPT"> F  </i>
  </separator>
 </parameters>
 <atominfo>
  <atoms>      18 </atoms>
  <types>       1 </types>
  <array name="atoms" >
   <dimension dim="1">ion</dimension>
   <field type="string">element</field>
   <field type="int">atomtype</field>
   <set>
    <rc><c>C </c><c>   1</c></rc>
    <rc><c>C </c><c>   1</c></rc>
    <rc><c>C </c><c>   1</c></rc>
    <rc><c>C </c><c>   1</c></rc>
    <rc><c>C </c><c>   1</c></rc>
    <rc><c>C </c><c>   1</c></rc>
    <rc><c>C </c><c>   1</c></rc>
    <rc><c>C </c><c>   1</c></rc>
    <rc><c>C </c><c>   1</c></rc>
    <rc><c>C </c><c>   1</c></rc>
    <rc><c>C </c><c>   1</c></rc>
    <rc><c>C </c><c>   1</c></rc>
    <rc><c>C </c><c>   1</c></rc>
    <rc><c>C </c><c>   1</c></rc>
    <rc><c>C </c><c>   1</c></rc>
    <rc><c>C </c><c>   1</c></rc>
    <rc><c>C </c><c>   1</c></rc>
    <rc><c>C </c><c>   1</c></rc>
   </set>
  </array>
  <array name="atomtypes" >
   <dimension dim="1">type</dimension>
   <field type="int">atomspertype</field>
   <field type="string">element</field>
   <field>mass</field>
   <field>valence</field>
   <field type="string">pseudopotential</field>
   <set>
    <rc><c>  18</c><c>C </c><c>     12.01100000</c><c>      4.00000000</c><c>  PAW_PBE C 08Apr2002                   </c></rc>
   </set>
  </array>
 </atominfo>
 <structure name="initialpos" >
  <crystal>
   <varray name="basis" >
    <v>       7.40170591       0.00000000       0.00000000 </v>
    <v>      -3.70085295       6.41006527       0.00000000 </v>
    <v>       0.00000000       0.00000000      20.00000000 </v>
   </varray>
   <i name="volume">    948.90835877 </i>
   <varray name="rec_basis" >
    <v>       0.13510399       0.07800233       0.00000000 </v>
    <v>       0.00000000       0.15600465       0.00000000 </v>
    <v>       0.00000000       0.00000000       0.05000000 </v>
   </varray>
  </crystal>
  <varray name="positions" >
   <v>       0.99729792       0.00000000       0.50000000 </v>
   <v>       0.33333333       0.00000000       0.50000000 </v>
   <v>       0.66666667       0.00000000       0.50000000 </v>
   <v>       0.00000000       0.33333333       0.50000000 </v>
   <v>       0.33333333       0.33333333       0.50000000 </v>
   <v>       0.66666667       0.33333333       0.50000000 </v>
   <v>       0.00000000       0.66666667       0.50000000 </v>
   <v>       0.33333333       0.66666667       0.50000000 </v>
   <v>       0.66666667       0.66666667       0.50000000 </v>
   <v>       0.22222222       0.11111111       0.50000000 </v>
   <v>       0.55555556       0.11111111       0.50000000 </v>
   <v>       0.88888889       0.11111111       0.50000000 </v>
   <v>       0.22222222       0.44444444       0.50000000 </v>
   <v>       0.55555556       0.44444444       0.50000000 </v>
   <v>       0.88888889       0.44444444       0.50000000 </v>
   <v>       0.22222222       0.77777778       0.50000000 </v>
   <v>       0.55555556       0.77777778       0.50000000 </v>
   <v>       0.88888889       0.77777778       0.50000000 </v>
  </varray>
 </structure>
 <calculation>
  <scstep>
   <time name="dav">    5.92    6.15</time>
   <time name="total">    6.01    6.24</time>
   <energy>
    <i name="alphaZ">     28.04858418 </i>
    <i name="ewald">  11638.90277394 </i>
    <i name="hartreedc"> -13553.19275707 </i>
    <i name="XCdc">    237.17810549 </i>
    <i name="pawpsdc">   1953.39683484 </i>
    <i name="pawaedc">  -1963.64613940 </i>
    <i name="eentropy">     -0.00840461 </i>
    <i name="bandstr">   -257.82077834 </i>
    <i name="atom">   2648.70517965 </i>
    <i name="e_fr_energy">    731.56339869 </i>
    <i name="e_wo_entrp">    731.57180330 </i>
    <i name="e_0_energy">    731.56760100 </i>
   </energy>
  </scstep>
  <scstep>
   <time name="dav">    7.86    8.17</time>
   <time name="total">    7.86    8.17</time>
   <energy>
    <i name="e_fr_energy">    -23.95777542 </i>
    <i name="e_wo_entrp">    -23.95756559 </i>
    <i name="e_0_energy">    -23.95767050 </i>
   </energy>
  </scstep>
  <scstep>
   <time name="dav">    6.37    5.40</time>
   <time name="total">    6.37    5.40</time>
   <energy>
    <i name="e_fr_energy">   -172.28220804 </i>
    <i name="e_wo_entrp">   -172.28108231 </i>
    <i name="e_0_energy">   -172.28164518 </i>
   </energy>
  </scstep>
  <scstep>
   <time name="dav">    6.25    6.49</time>
   <time name="total">    6.25    6.49</time>
   <energy>
    <i name="e_fr_energy">   -177.34289904 </i>
    <i name="e_wo_entrp">   -177.34110697 </i>
    <i name="e_0_energy">   -177.34200301 </i>
   </energy>
  </scstep>
  <scstep>
   <time name="dav">    7.23    7.51</time>
   <time name="total">    7.50    7.79</time>
   <energy>
    <i name="e_fr_energy">   -177.48000584 </i>
    <i name="e_wo_entrp">   -177.47818822 </i>
    <i name="e_0_energy">   -177.47909703 </i>
   </energy>
  </scstep>
  <scstep>
   <time name="dav">    5.88    6.12</time>
   <time name="total">    6.23    6.47</time>
   <energy>
    <i name="e_fr_energy">   -169.31018775 </i>
    <i name="e_wo_entrp">   -169.30826884 </i>
    <i name="e_0_energy">   -169.30922829 </i>
   </energy>
  </scstep>
  <scstep>
   <time name="dav">    5.88    6.11</time>
   <time name="total">    6.22    6.46</time>
   <energy>
    <i name="e_fr_energy">   -166.14244075 </i>
    <i name="e_wo_entrp">   -166.14047323 </i>
    <i name="e_0_energy">   -166.14145699 </i>
   </energy>
  </scstep>
  <scstep>
   <time name="dav">    6.15    5.18</time>
   <time name="total">    6.49    5.53</time>
   <energy>
    <i name="e_fr_energy">   -166.07950741 </i>
    <i name="e_wo_entrp">   -166.07756189 </i>
    <i name="e_0_energy">   -166.07853465 </i>
   </energy>
  </scstep>
  <scstep>
   <time name="dav">    6.54    6.79</time>
   <time name="total">    6.89    7.15</time>
   <energy>
    <i name="e_fr_energy">   -166.06658051 </i>
    <i name="e_wo_entrp">   -166.06462773 </i>
    <i name="e_0_energy">   -166.06560412 </i>
   </energy>
  </scstep>
  <scstep>
   <time name="dav">    5.70    5.92</time>
   <time name="total">    6.05    6.28</time>
   <energy>
    <i name="e_fr_energy">   -166.04856474 </i>
    <i name="e_wo_entrp">   -166.04660705 </i>
    <i name="e_0_energy">   -166.04758590 </i>
   </energy>
  </scstep>
  <scstep>
   <time name="dav">    5.70    5.92</time>
   <time name="total">    6.06    6.29</time>
   <energy>
    <i name="e_fr_energy">   -166.05088439 </i>
    <i name="e_wo_entrp">   -166.04892993 </i>
    <i name="e_0_energy">   -166.04990716 </i>
   </energy>
  </scstep>
  <scstep>
   <time name="dav">    5.91    6.14</time>
   <time name="total">    6.27    6.51</time>
   <energy>
    <i name="e_fr_energy">   -166.05534097 </i>
    <i name="e_wo_entrp">   -166.05338737 </i>
    <i name="e_0_energy">   -166.05436417 </i>
   </energy>
  </scstep>
  <scstep>
   <time name="dav">    5.70    4.72</time>
   <time name="total">    6.05    5.08</time>
   <energy>
    <i name="e_fr_energy">   -166.05981334 </i>
    <i name="e_wo_entrp">   -166.05785877 </i>
    <i name="e_0_energy">   -166.05883605 </i>
   </energy>
  </scstep>
  <scstep>
   <time name="dav">    5.64    5.85</time>
   <time name="total">    5.99    6.22</time>
   <energy>
    <i name="e_fr_energy">   -166.06351174 </i>
    <i name="e_wo_entrp">   -166.06155707 </i>
    <i name="e_0_energy">   -166.06253440 </i>
   </energy>
  </scstep>
  <scstep>
   <time name="dav">    5.82    6.04</time>
   <time name="total">    6.18    6.41</time>
   <energy>
    <i name="e_fr_energy">   -166.06542413 </i>
    <i name="e_wo_entrp">   -166.06346916 </i>
    <i name="e_0_energy">   -166.06444665 </i>
   </energy>
  </scstep>
  <scstep>
   <time name="dav">    5.94    6.17</time>
   <time name="total">    6.28    6.53</time>
   <energy>
    <i name="e_fr_energy">   -166.06559531 </i>
    <i name="e_wo_entrp">   -166.06364047 </i>
    <i name="e_0_energy">   -166.06461789 </i>
   </energy>
  </scstep>
  <scstep>
   <time name="dav">    5.65    5.87</time>
   <time name="total">    6.00    6.23</time>
   <energy>
    <i name="e_fr_energy">   -166.06580442 </i>
    <i name="e_wo_entrp">   -166.06384986 </i>
    <i name="e_0_energy">   -166.06482714 </i>
   </energy>
  </scstep>
  <scstep>
   <time name="dav">    5.05    4.05</time>
   <time name="total">    5.40    4.40</time>
   <energy>
    <i name="e_fr_energy">   -166.06587693 </i>
    <i name="e_wo_entrp">   -166.06392225 </i>
    <i name="e_0_energy">   -166.06489959 </i>
   </energy>
  </scstep>
  <scstep>
   <time name="dav">    4.98    5.16</time>
   <time name="total">    5.32    5.53</time>
   <energy>
    <i name="e_fr_energy">   -166.06590722 </i>
    <i name="e_wo_entrp">   -166.06395250 </i>
    <i name="e_0_energy">   -166.06492986 </i>
   </energy>
  </scstep>
  <scstep>
   <time name="dav">    4.81    4.99</time>
   <time name="total">    5.16    5.36</time>
   <energy>
    <i name="e_fr_energy">   -166.06594178 </i>
    <i name="e_wo_entrp">   -166.06398709 </i>
    <i name="e_0_energy">   -166.06496443 </i>
   </energy>
  </scstep>
  <scstep>
   <time name="dav">    3.87    4.02</time>
   <time name="total">    4.23    4.40</time>
   <energy>
    <i name="e_fr_energy">   -166.06595060 </i>
    <i name="e_wo_entrp">   -166.06399586 </i>
    <i name="e_0_energy">   -166.06497323 </i>
   </energy>
  </scstep>
  <scstep>
   <time name="dav">    3.87    4.03</time>
   <time name="total">    4.22    4.39</time>
   <energy>
    <i name="e_fr_energy">   -166.06595500 </i>
    <i name="e_wo_entrp">   -166.06400030 </i>
    <i name="e_0_energy">   -166.06497765 </i>
   </energy>
  </scstep>
  <scstep>
   <time name="dav">    3.92    4.08</time>
   <time name="total">    4.01    4.17</time>
   <energy>
    <i name="alphaZ">     28.04858418 </i>
    <i name="ewald">  11638.90277394 </i>
    <i name="hartreedc"> -13861.54537066 </i>
    <i name="XCdc">    247.81520415 </i>
    <i name="pawpsdc">   7453.25374556 </i>
    <i name="pawaedc">  -7465.51733811 </i>
    <i name="eentropy">     -0.00195470 </i>
    <i name="bandstr">   -855.72677954 </i>
    <i name="atom">   2648.70517965 </i>
    <i name="e_fr_energy">   -166.06595553 </i>
    <i name="e_wo_entrp">   -166.06400083 </i>
    <i name="e_0_energy">   -166.06497818 </i>
   </energy>
  </scstep>
  <structure>
   <crystal>
    <varray name="basis" >
     <v>       7.40170591       0.00000000       0.00000000 </v>
     <v>      -3.70085295       6.41006527       0.00000000 </v>
     <v>       0.00000000       0.00000000      20.00000000 </v>
    </varray>
    <i name="volume">    948.90835877 </i>
    <varray name="rec_basis" >
     <v>       0.13510399       0.07800233       0.00000000 </v>
     <v>       0.00000000       0.15600465       0.00000000 </v>
     <v>       0.00000000       0.00000000       0.05000000 </v>
    </varray>
   </crystal>
   <varray name="positions" >
    <v>       0.99729792       0.00000000       0.50000000 </v>
    <v>       0.33333333       0.00000000       0.50000000 </v>
    <v>       0.66666667       0.00000000       0.50000000 </v>
    <v>       0.00000000       0.33333333       0.50000000 </v>
    <v>       0.33333333       0.33333333       0.50000000 </v>
    <v>       0.66666667       0.33333333       0.50000000 </v>
    <v>       0.00000000       0.66666667       0.50000000 </v>
    <v>       0.33333333       0.66666667       0.50000000 </v>
    <v>       0.66666667       0.66666667       0.50000000 </v>
    <v>       0.22222222       0.11111111       0.50000000 </v>
    <v>       0.55555556       0.11111111       0.50000000 </v>
    <v>       0.88888889       0.11111111       0.50000000 </v>
    <v>       0.22222222       0.44444444       0.50000000 </v>
    <v>       0.55555556       0.44444444       0.50000000 </v>
    <v>       0.88888889       0.44444444       0.50000000 </v>
    <v>       0.22222222       0.77777778       0.50000000 </v>
    <v>       0.55555556       0.77777778       0.50000000 </v>
    <v>       0.88888889       0.77777778       0.50000000 </v>
   </varray>
  </structure>
  <varray name="forces" >
   <v>       1.20272906      -0.03143472      -0.00000000 </v>
   <v>      -0.09778482       0.02538847       0.00000000 </v>
   <v>      -0.10237181      -0.02617772      -0.00000000 </v>
   <v>       0.01187848       0.09124670       0.00000000 </v>
   <v>       0.01175278      -0.08950773       0.00000000 </v>
   <v>      -0.05797592       0.00073902       0.00000000 </v>
   <v>       0.01090584       0.03916233       0.00000000 </v>
   <v>      -0.05797341       0.00079160       0.00000000 </v>
   <v>       0.01274895      -0.03846219       0.00000000 </v>
   <v>      -0.38600971      -0.09634897       0.00000000 </v>
   <v>       0.00198886      -0.00071833       0.00000000 </v>
   <v>      -0.42970783       0.12610138       0.00000000 </v>
   <v>      -0.04353642      -0.00080653       0.00000000 </v>
   <v>       0.03560614      -0.02008990       0.00000000 </v>
   <v>       0.03555336       0.01870648       0.00000000 </v>
   <v>       0.03467122      -0.04444644       0.00000000 </v>
   <v>       0.03323971       0.04502214       0.00000000 </v>
   <v>      -0.21571449       0.00083441       0.00000000 </v>
  </varray>
  <varray name="stress" >
   <v>      -0.09387435      -0.15899546       0.00000000 </v>
   <v>      -0.15899546      -0.12606023       0.00000000 </v>
   <v>       0.00000000       0.00000000      -0.56497303 </v>
  </varray>
  <energy>
   <i name="e_fr_energy">   -166.06595553 </i>
   <i name="e_wo_entrp">   -166.06400083 </i>
   <i name="e_0_energy">   -166.06497818 </i>
  </energy>
  <time name="totalsc">  142.22  141.68</time>
  <eigenvalues>
   <array>
    <dimension dim="1">band</dimension>
    <dimension dim="2">kpoint</dimension>
    <dimension dim="3">spin</dimension>
    <field>eigene</field>
    <field>occ</field>
    <set>
     <set comment="spin 1">
      <set comment="kpoint 1">
       <r>  -22.2562    1.0000 </r>
       <r>  -19.7159    1.0000 </r>
       <r>  -19.6781    1.0000 </r>
       <r>  -19.6733    1.0000 </r>
       <r>  -19.6733    1.0000 </r>
       <r>  -19.6686    1.0000 </r>
       <r>  -19.6321    1.0000 </r>
       <r>  -15.3709    1.0000 </r>
       <r>  -15.3412    1.0000 </r>
       <r>  -15.3400    1.0000 </r>
       <r>  -15.3117    1.0000 </r>
       <r>  -13.2948    1.0000 </r>
       <r>  -13.2852    1.0000 </r>
       <r>  -12.4199    1.0000 </r>
       <r>  -12.3908    1.0000 </r>
       <r>  -12.3747    1.0000 </r>
       <r>  -12.3746    1.0000 </r>
       <r>  -12.3581    1.0000 </r>
       <r>  -12.3289    1.0000 </r>
       <r>  -10.3601    1.0000 </r>
       <r>   -8.5774    1.0000 </r>
       <r>   -8.5311    1.0000 </r>
       <r>   -8.5236    1.0000 </r>
       <r>   -8.5234    1.0000 </r>
       <r>   -8.5162    1.0000 </r>
       <r>   -8.4689    1.0000 </r>
       <r>   -7.4070    1.0000 </r>
       <r>   -7.3732    1.0000 </r>
       <r>   -7.3709    1.0000 </r>
       <r>   -7.3708    1.0000 </r>
       <r>   -7.3685    1.0000 </r>
       <r>   -7.3358    1.0000 </r>
       <r>   -5.8165    1.0000 </r>
       <r>   -5.7505    1.0000 </r>
       <r>   -2.7853    0.8022 </r>
       <r>   -2.7553    0.5006 </r>
       <r>   -2.7551    0.4988 </r>
       <r>   -2.7253    0.1984 </r>
       <r>    0.5194    0.0000 </r>
       <r>    1.3113    0.0000 </r>
       <r>    1.6326    0.0000 </r>
       <r>    2.0963    0.0000 </r>
       <r>    2.1403    0.0000 </r>
       <r>    2.1443    0.0000 </r>
       <r>    2.1444    0.0000 </r>
       <r>    2.1483    0.0000 </r>
      </set>
      <set comment="kpoint 2">
       <r>  -22.2026    1.0000 </r>
       <r>  -20.3494    1.0000 </r>
       <r>  -19.9933    1.0000 </r>
       <r>  -19.9768    1.0000 </r>
       <r>  -19.2709    1.0000 </r>
       <r>  -19.2542    1.0000 </r>
       <r>  -18.9052    1.0000 </r>
       <r>  -16.0053    1.0000 </r>
       <r>  -15.9845    1.0000 </r>
       <r>  -14.9252    1.0000 </r>
       <r>  -14.9045    1.0000 </r>
       <r>  -13.5886    1.0000 </r>
       <r>  -12.9915    1.0000 </r>
       <r>  -12.9747    1.0000 </r>
       <r>  -12.9515    1.0000 </r>
       <r>  -12.9425    1.0000 </r>
       <r>  -11.7518    1.0000 </r>
       <r>  -11.7317    1.0000 </r>
       <r>  -11.1049    1.0000 </r>
       <r>  -10.2962    1.0000 </r>
       <r>   -8.8760    1.0000 </r>
       <r>   -8.8497    1.0000 </r>
       <r>   -8.8349    1.0000 </r>
       <r>   -8.5155    1.0000 </r>
       <r>   -8.4832    1.0000 </r>
       <r>   -8.1463    1.0000 </r>
       <r>   -8.1297    1.0000 </r>
       <r>   -7.7195    1.0000 </r>
       <r>   -7.7046    1.0000 </r>
       <r>   -6.9287    1.0000 </r>
       <r>   -6.9136    1.0000 </r>
       <r>   -6.5621    1.0000 </r>
       <r>   -5.9810    1.0000 </r>
       <r>   -5.9221    1.0000 </r>
       <r>   -3.5339    1.0000 </r>
       <r>   -3.5186    1.0000 </r>
       <r>   -2.0134    0.0000 </r>
       <r>   -1.9966    0.0000 </r>
       <r>    0.5921    0.0000 </r>
       <r>    0.8881    0.0000 </r>
       <r>    1.3849    0.0000 </r>
       <r>    1.4591    0.0000 </r>
       <r>    1.4802    0.0000 </r>
       <r>    1.7070    0.0000 </r>
       <r>    2.6307    0.0000 </r>
       <r>    2.7451    0.0000 </r>
      </set>
      <set comment="kpoint 3">
       <r>  -22.2026    1.0000 </r>
       <r>  -20.3500    1.0000 </r>
       <r>  -20.0000    1.0000 </r>
       <r>  -19.9687    1.0000 </r>
       <r>  -19.2785    1.0000 </r>
       <r>  -19.2468    1.0000 </r>
       <r>  -18.9057    1.0000 </r>
       <r>  -16.0108    1.0000 </r>
       <r>  -15.9806    1.0000 </r>
       <r>  -14.9274    1.0000 </r>
       <r>  -14.8989    1.0000 </r>
       <r>  -13.5988    1.0000 </r>
       <r>  -12.9844    1.0000 </r>
       <r>  -12.9695    1.0000 </r>
       <r>  -12.9556    1.0000 </r>
       <r>  -12.9427    1.0000 </r>
       <r>  -11.7496    1.0000 </r>
       <r>  -11.7215    1.0000 </r>
       <r>  -11.1164    1.0000 </r>
       <r>  -10.2961    1.0000 </r>
       <r>   -8.8851    1.0000 </r>
       <r>   -8.8551    1.0000 </r>
       <r>   -8.8192    1.0000 </r>
       <r>   -8.5229    1.0000 </r>
       <r>   -8.4946    1.0000 </r>
       <r>   -8.1292    1.0000 </r>
       <r>   -8.1276    1.0000 </r>
       <r>   -7.7272    1.0000 </r>
       <r>   -7.7001    1.0000 </r>
       <r>   -6.9362    1.0000 </r>
       <r>   -6.9094    1.0000 </r>
       <r>   -6.5568    1.0000 </r>
       <r>   -6.0129    1.0000 </r>
       <r>   -5.8899    1.0000 </r>
       <r>   -3.5408    1.0000 </r>
       <r>   -3.5127    1.0000 </r>
       <r>   -2.0206    0.0000 </r>
       <r>   -1.9883    0.0000 </r>
       <r>    0.5921    0.0000 </r>
       <r>    0.8748    0.0000 </r>
       <r>    1.3848    0.0000 </r>
       <r>    1.4540    0.0000 </r>
       <r>    1.4943    0.0000 </r>
       <r>    1.7070    0.0000 </r>
       <r>    2.6307    0.0000 </r>
       <r>    2.7417    0.0000 </r>
      </set>
      <set comment="kpoint 4">
       <r>  -22.2027    1.0000 </r>
       <r>  -20.3502    1.0000 </r>
       <r>  -19.9924    1.0000 </r>
       <r>  -19.9764    1.0000 </r>
       <r>  -19.2706    1.0000 </r>
       <r>  -19.2541    1.0000 </r>
       <r>  -18.9059    1.0000 </r>
       <r>  -16.0064    1.0000 </r>
       <r>  -15.9861    1.0000 </r>
       <r>  -14.9220    1.0000 </r>
       <r>  -14.9019    1.0000 </r>
       <r>  -13.6073    1.0000 </r>
       <r>  -12.9835    1.0000 </r>
       <r>  -12.9701    1.0000 </r>
       <r>  -12.9544    1.0000 </r>
       <r>  -12.9381    1.0000 </r>
       <r>  -11.7387    1.0000 </r>
       <r>  -11.7180    1.0000 </r>
       <r>  -11.1291    1.0000 </r>
       <r>  -10.2961    1.0000 </r>
       <r>   -8.8867    1.0000 </r>
       <r>   -8.8585    1.0000 </r>
       <r>   -8.8129    1.0000 </r>
       <r>   -8.5311    1.0000 </r>
       <r>   -8.5030    1.0000 </r>
       <r>   -8.1255    1.0000 </r>
       <r>   -8.1143    1.0000 </r>
       <r>   -7.7230    1.0000 </r>
       <r>   -7.7080    1.0000 </r>
       <r>   -6.9316    1.0000 </r>
       <r>   -6.9172    1.0000 </r>
       <r>   -6.5512    1.0000 </r>
       <r>   -6.0326    1.0000 </r>
       <r>   -5.8699    1.0000 </r>
       <r>   -3.5346    1.0000 </r>
       <r>   -3.5199    1.0000 </r>
       <r>   -2.0119    0.0000 </r>
       <r>   -1.9958    0.0000 </r>
       <r>    0.5921    0.0000 </r>
       <r>    0.8615    0.0000 </r>
       <r>    1.3849    0.0000 </r>
       <r>    1.4683    0.0000 </r>
       <r>    1.4882    0.0000 </r>
       <r>    1.7070    0.0000 </r>
       <r>    2.6307    0.0000 </r>
       <r>    2.7575    0.0000 </r>
      </set>
      <set comment="kpoint 5">
       <r>  -22.0421    1.0000 </r>
       <r>  -20.9267    1.0000 </r>
       <r>  -20.2016    1.0000 </r>
       <r>  -20.1852    1.0000 </r>
       <r>  -18.7641    1.0000 </r>
       <r>  -18.7469    1.0000 </r>
       <r>  -18.0633    1.0000 </r>
       <r>  -16.7542    1.0000 </r>
       <r>  -16.7348    1.0000 </r>
       <r>  -14.7464    1.0000 </r>
       <r>  -14.6351    1.0000 </r>
       <r>  -14.6167    1.0000 </r>
       <r>  -13.5120    1.0000 </r>
       <r>  -13.4946    1.0000 </r>
       <r>  -12.1896    1.0000 </r>
       <r>  -12.1738    1.0000 </r>
       <r>  -11.1188    1.0000 </r>
       <r>  -11.0968    1.0000 </r>
       <r>  -10.1051    1.0000 </r>
       <r>   -9.8467    1.0000 </r>
       <r>   -9.5023    1.0000 </r>
       <r>   -9.4775    1.0000 </r>
       <r>   -9.0518    1.0000 </r>
       <r>   -8.7933    1.0000 </r>
       <r>   -8.7631    1.0000 </r>
       <r>   -8.7337    1.0000 </r>
       <r>   -7.9506    1.0000 </r>
       <r>   -7.9356    1.0000 </r>
       <r>   -7.6888    1.0000 </r>
       <r>   -6.5974    1.0000 </r>
       <r>   -6.3836    1.0000 </r>
       <r>   -6.3687    1.0000 </r>
       <r>   -6.2405    1.0000 </r>
       <r>   -5.7737    1.0000 </r>
       <r>   -4.3055    1.0000 </r>
       <r>   -4.2905    1.0000 </r>
       <r>   -1.2931    0.0000 </r>
       <r>   -1.2753    0.0000 </r>
       <r>   -0.2205    0.0000 </r>
       <r>    0.7745    0.0000 </r>
       <r>    0.7948    0.0000 </r>
       <r>    0.8100    0.0000 </r>
       <r>    1.6057    0.0000 </r>
       <r>    1.9305    0.0000 </r>
       <r>    2.3339    0.0000 </r>
       <r>    2.8520    0.0000 </r>
      </set>
      <set comment="kpoint 6">
       <r>  -22.0421    1.0000 </r>
       <r>  -20.9272    1.0000 </r>
       <r>  -20.2085    1.0000 </r>
       <r>  -20.1772    1.0000 </r>
       <r>  -18.7715    1.0000 </r>
       <r>  -18.7396    1.0000 </r>
       <r>  -18.0630    1.0000 </r>
       <r>  -16.7611    1.0000 </r>
       <r>  -16.7297    1.0000 </r>
       <r>  -14.7549    1.0000 </r>
       <r>  -14.6369    1.0000 </r>
       <r>  -14.6104    1.0000 </r>
       <r>  -13.5117    1.0000 </r>
       <r>  -13.4863    1.0000 </r>
       <r>  -12.2003    1.0000 </r>
       <r>  -12.1684    1.0000 </r>
       <r>  -11.1125    1.0000 </r>
       <r>  -11.0841    1.0000 </r>
       <r>  -10.1049    1.0000 </r>
       <r>   -9.8603    1.0000 </r>
       <r>   -9.5120    1.0000 </r>
       <r>   -9.4797    1.0000 </r>
       <r>   -9.0376    1.0000 </r>
       <r>   -8.7921    1.0000 </r>
       <r>   -8.7731    1.0000 </r>
       <r>   -8.7477    1.0000 </r>
       <r>   -7.9585    1.0000 </r>
       <r>   -7.9312    1.0000 </r>
       <r>   -7.6702    1.0000 </r>
       <r>   -6.6234    1.0000 </r>
       <r>   -6.3910    1.0000 </r>
       <r>   -6.3643    1.0000 </r>
       <r>   -6.2135    1.0000 </r>
       <r>   -5.7650    1.0000 </r>
       <r>   -4.3125    1.0000 </r>
       <r>   -4.2854    1.0000 </r>
       <r>   -1.3001    0.0000 </r>
       <r>   -1.2654    0.0000 </r>
       <r>   -0.2378    0.0000 </r>
       <r>    0.7684    0.0000 </r>
       <r>    0.8080    0.0000 </r>
       <r>    0.8100    0.0000 </r>
       <r>    1.6057    0.0000 </r>
       <r>    1.9305    0.0000 </r>
       <r>    2.3339    0.0000 </r>
       <r>    2.8520    0.0000 </r>
      </set>
      <set comment="kpoint 7">
       <r>  -22.0422    1.0000 </r>
       <r>  -20.9273    1.0000 </r>
       <r>  -20.2006    1.0000 </r>
       <r>  -20.1847    1.0000 </r>
       <r>  -18.7640    1.0000 </r>
       <r>  -18.7472    1.0000 </r>
       <r>  -18.0625    1.0000 </r>
       <r>  -16.7552    1.0000 </r>
       <r>  -16.7363    1.0000 </r>
       <r>  -14.7647    1.0000 </r>
       <r>  -14.6300    1.0000 </r>
       <r>  -14.6124    1.0000 </r>
       <r>  -13.5040    1.0000 </r>
       <r>  -13.4874    1.0000 </r>
       <r>  -12.1942    1.0000 </r>
       <r>  -12.1776    1.0000 </r>
       <r>  -11.0992    1.0000 </r>
       <r>  -11.0775    1.0000 </r>
       <r>  -10.1047    1.0000 </r>
       <r>   -9.8756    1.0000 </r>
       <r>   -9.5127    1.0000 </r>
       <r>   -9.4876    1.0000 </r>
       <r>   -9.0255    1.0000 </r>
       <r>   -8.7907    1.0000 </r>
       <r>   -8.7856    1.0000 </r>
       <r>   -8.7582    1.0000 </r>
       <r>   -7.9542    1.0000 </r>
       <r>   -7.9392    1.0000 </r>
       <r>   -7.6533    1.0000 </r>
       <r>   -6.6461    1.0000 </r>
       <r>   -6.3865    1.0000 </r>
       <r>   -6.3720    1.0000 </r>
       <r>   -6.1898    1.0000 </r>
       <r>   -5.7562    1.0000 </r>
       <r>   -4.3069    1.0000 </r>
       <r>   -4.2926    1.0000 </r>
       <r>   -1.2903    0.0000 </r>
       <r>   -1.2731    0.0000 </r>
       <r>   -0.2545    0.0000 </r>
       <r>    0.7818    0.0000 </r>
       <r>    0.8014    0.0000 </r>
       <r>    0.8101    0.0000 </r>
       <r>    1.6057    0.0000 </r>
       <r>    1.9305    0.0000 </r>
       <r>    2.3339    0.0000 </r>
       <r>    2.8521    0.0000 </r>
      </set>
      <set comment="kpoint 8">
       <r>  -21.7755    1.0000 </r>
       <r>  -21.4025    1.0000 </r>
       <r>  -20.3061    1.0000 </r>
       <r>  -20.2898    1.0000 </r>
       <r>  -18.1675    1.0000 </r>
       <r>  -18.1498    1.0000 </r>
       <r>  -17.4903    1.0000 </r>
       <r>  -17.4717    1.0000 </r>
       <r>  -17.2318    1.0000 </r>
       <r>  -15.7331    1.0000 </r>
       <r>  -14.3347    1.0000 </r>
       <r>  -14.3170    1.0000 </r>
       <r>  -13.9622    1.0000 </r>
       <r>  -13.9457    1.0000 </r>
       <r>  -11.2652    1.0000 </r>
       <r>  -11.2466    1.0000 </r>
       <r>  -10.6251    1.0000 </r>
       <r>  -10.6014    1.0000 </r>
       <r>  -10.3334    1.0000 </r>
       <r>  -10.3130    1.0000 </r>
       <r>   -9.7885    1.0000 </r>
       <r>   -9.3491    1.0000 </r>
       <r>   -9.1587    1.0000 </r>
       <r>   -9.0841    1.0000 </r>
       <r>   -9.0607    1.0000 </r>
       <r>   -8.6271    1.0000 </r>
       <r>   -8.0671    1.0000 </r>
       <r>   -8.0520    1.0000 </r>
       <r>   -7.5167    1.0000 </r>
       <r>   -7.1890    1.0000 </r>
       <r>   -6.6847    1.0000 </r>
       <r>   -5.7537    1.0000 </r>
       <r>   -5.7388    1.0000 </r>
       <r>   -5.2118    1.0000 </r>
       <r>   -5.0524    1.0000 </r>
       <r>   -5.0377    1.0000 </r>
       <r>   -0.9501    0.0000 </r>
       <r>   -0.5962    0.0000 </r>
       <r>   -0.5768    0.0000 </r>
       <r>    0.0903    0.0000 </r>
       <r>    0.1096    0.0000 </r>
       <r>    1.1732    0.0000 </r>
       <r>    1.6815    0.0000 </r>
       <r>    1.9730    0.0000 </r>
       <r>    2.3029    0.0000 </r>
       <r>    2.4859    0.0000 </r>
      </set>
      <set comment="kpoint 9">
       <r>  -21.7753    1.0000 </r>
       <r>  -21.4032    1.0000 </r>
       <r>  -20.3130    1.0000 </r>
       <r>  -20.2818    1.0000 </r>
       <r>  -18.1746    1.0000 </r>
       <r>  -18.1425    1.0000 </r>
       <r>  -17.4977    1.0000 </r>
       <r>  -17.4658    1.0000 </r>
       <r>  -17.2286    1.0000 </r>
       <r>  -15.7458    1.0000 </r>
       <r>  -14.3349    1.0000 </r>
       <r>  -14.3096    1.0000 </r>
       <r>  -13.9629    1.0000 </r>
       <r>  -13.9379    1.0000 </r>
       <r>  -11.2765    1.0000 </r>
       <r>  -11.2427    1.0000 </r>
       <r>  -10.6112    1.0000 </r>
       <r>  -10.5857    1.0000 </r>
       <r>  -10.3438    1.0000 </r>
       <r>  -10.3104    1.0000 </r>
       <r>   -9.7880    1.0000 </r>
       <r>   -9.3486    1.0000 </r>
       <r>   -9.1494    1.0000 </r>
       <r>   -9.0947    1.0000 </r>
       <r>   -9.0798    1.0000 </r>
       <r>   -8.6454    1.0000 </r>
       <r>   -8.0750    1.0000 </r>
       <r>   -8.0476    1.0000 </r>
       <r>   -7.5398    1.0000 </r>
       <r>   -7.1658    1.0000 </r>
       <r>   -6.6623    1.0000 </r>
       <r>   -5.7606    1.0000 </r>
       <r>   -5.7341    1.0000 </r>
       <r>   -5.1990    1.0000 </r>
       <r>   -5.0598    1.0000 </r>
       <r>   -5.0333    1.0000 </r>
       <r>   -0.9701    0.0000 </r>
       <r>   -0.6034    0.0000 </r>
       <r>   -0.5665    0.0000 </r>
       <r>    0.0834    0.0000 </r>
       <r>    0.1219    0.0000 </r>
       <r>    1.1733    0.0000 </r>
       <r>    1.6815    0.0000 </r>
       <r>    1.9731    0.0000 </r>
       <r>    2.3029    0.0000 </r>
       <r>    2.4860    0.0000 </r>
      </set>
      <set comment="kpoint 10">
       <r>  -21.7757    1.0000 </r>
       <r>  -21.4029    1.0000 </r>
       <r>  -20.3051    1.0000 </r>
       <r>  -20.2892    1.0000 </r>
       <r>  -18.1679    1.0000 </r>
       <r>  -18.1504    1.0000 </r>
       <r>  -17.4907    1.0000 </r>
       <r>  -17.4731    1.0000 </r>
       <r>  -17.2237    1.0000 </r>
       <r>  -15.7584    1.0000 </r>
       <r>  -14.3279    1.0000 </r>
       <r>  -14.3119    1.0000 </r>
       <r>  -13.9555    1.0000 </r>
       <r>  -13.9388    1.0000 </r>
       <r>  -11.2719    1.0000 </r>
       <r>  -11.2524    1.0000 </r>
       <r>  -10.5926    1.0000 </r>
       <r>  -10.5720    1.0000 </r>
       <r>  -10.3431    1.0000 </r>
       <r>  -10.3195    1.0000 </r>
       <r>   -9.7877    1.0000 </r>
       <r>   -9.3476    1.0000 </r>
       <r>   -9.1375    1.0000 </r>
       <r>   -9.1165    1.0000 </r>
       <r>   -9.0934    1.0000 </r>
       <r>   -8.6619    1.0000 </r>
       <r>   -8.0706    1.0000 </r>
       <r>   -8.0557    1.0000 </r>
       <r>   -7.5582    1.0000 </r>
       <r>   -7.1494    1.0000 </r>
       <r>   -6.6393    1.0000 </r>
       <r>   -5.7563    1.0000 </r>
       <r>   -5.7417    1.0000 </r>
       <r>   -5.1868    1.0000 </r>
       <r>   -5.0545    1.0000 </r>
       <r>   -5.0399    1.0000 </r>
       <r>   -0.9923    0.0000 </r>
       <r>   -0.5913    0.0000 </r>
       <r>   -0.5739    0.0000 </r>
       <r>    0.0956    0.0000 </r>
       <r>    0.1150    0.0000 </r>
       <r>    1.1733    0.0000 </r>
       <r>    1.6815    0.0000 </r>
       <r>    1.9731    0.0000 </r>
       <r>    2.3029    0.0000 </r>
       <r>    2.4862    0.0000 </r>
      </set>
      <set comment="kpoint 11">
       <r>  -22.0956    1.0000 </r>
       <r>  -20.6227    1.0000 </r>
       <r>  -20.5999    1.0000 </r>
       <r>  -19.5355    1.0000 </r>
       <r>  -19.5044    1.0000 </r>
       <r>  -18.4667    1.0000 </r>
       <r>  -18.4430    1.0000 </r>
       <r>  -16.7802    1.0000 </r>
       <r>  -16.1531    1.0000 </r>
       <r>  -15.2579    1.0000 </r>
       <r>  -14.2451    1.0000 </r>
       <r>  -14.1715    1.0000 </r>
       <r>  -14.1346    1.0000 </r>
       <r>  -12.6167    1.0000 </r>
       <r>  -12.3293    1.0000 </r>
       <r>  -12.3081    1.0000 </r>
       <r>  -12.2586    1.0000 </r>
       <r>  -10.5042    1.0000 </r>
       <r>  -10.4597    1.0000 </r>
       <r>  -10.1687    1.0000 </r>
       <r>   -9.1827    1.0000 </r>
       <r>   -9.1589    1.0000 </r>
       <r>   -9.1379    1.0000 </r>
       <r>   -9.1071    1.0000 </r>
       <r>   -8.4357    1.0000 </r>
       <r>   -8.4178    1.0000 </r>
       <r>   -8.1011    1.0000 </r>
       <r>   -8.0588    1.0000 </r>
       <r>   -7.2020    1.0000 </r>
       <r>   -7.1736    1.0000 </r>
       <r>   -6.3817    1.0000 </r>
       <r>   -6.1569    1.0000 </r>
       <r>   -6.1175    1.0000 </r>
       <r>   -6.0993    1.0000 </r>
       <r>   -4.2659    1.0000 </r>
       <r>   -3.8860    1.0000 </r>
       <r>   -1.7284    0.0000 </r>
       <r>   -1.2529    0.0000 </r>
       <r>    0.2685    0.0000 </r>
       <r>    0.2954    0.0000 </r>
       <r>    0.7374    0.0000 </r>
       <r>    1.5321    0.0000 </r>
       <r>    1.8560    0.0000 </r>
       <r>    1.9835    0.0000 </r>
       <r>    2.0208    0.0000 </r>
       <r>    2.7783    0.0000 </r>
      </set>
      <set comment="kpoint 12">
       <r>  -22.0957    1.0000 </r>
       <r>  -20.6228    1.0000 </r>
       <r>  -20.6001    1.0000 </r>
       <r>  -19.5345    1.0000 </r>
       <r>  -19.5038    1.0000 </r>
       <r>  -18.4670    1.0000 </r>
       <r>  -18.4432    1.0000 </r>
       <r>  -16.7783    1.0000 </r>
       <r>  -16.1699    1.0000 </r>
       <r>  -15.2234    1.0000 </r>
       <r>  -14.2679    1.0000 </r>
       <r>  -14.1795    1.0000 </r>
       <r>  -14.1457    1.0000 </r>
       <r>  -12.5947    1.0000 </r>
       <r>  -12.3112    1.0000 </r>
       <r>  -12.2893    1.0000 </r>
       <r>  -12.2730    1.0000 </r>
       <r>  -10.5137    1.0000 </r>
       <r>  -10.4687    1.0000 </r>
       <r>  -10.1684    1.0000 </r>
       <r>   -9.2145    1.0000 </r>
       <r>   -9.1709    1.0000 </r>
       <r>   -9.1278    1.0000 </r>
       <r>   -9.1011    1.0000 </r>
       <r>   -8.4348    1.0000 </r>
       <r>   -8.4169    1.0000 </r>
       <r>   -8.0893    1.0000 </r>
       <r>   -8.0466    1.0000 </r>
       <r>   -7.2082    1.0000 </r>
       <r>   -7.1801    1.0000 </r>
       <r>   -6.4346    1.0000 </r>
       <r>   -6.1096    1.0000 </r>
       <r>   -6.1026    1.0000 </r>
       <r>   -6.0915    1.0000 </r>
       <r>   -4.2501    1.0000 </r>
       <r>   -3.9124    1.0000 </r>
       <r>   -1.6926    0.0000 </r>
       <r>   -1.2773    0.0000 </r>
       <r>    0.2516    0.0000 </r>
       <r>    0.2777    0.0000 </r>
       <r>    0.7374    0.0000 </r>
       <r>    1.5321    0.0000 </r>
       <r>    1.8560    0.0000 </r>
       <r>    2.0034    0.0000 </r>
       <r>    2.0406    0.0000 </r>
       <r>    2.7783    0.0000 </r>
      </set>
      <set comment="kpoint 13">
       <r>  -22.0956    1.0000 </r>
       <r>  -20.6120    1.0000 </r>
       <r>  -20.6108    1.0000 </r>
       <r>  -19.5202    1.0000 </r>
       <r>  -19.5192    1.0000 </r>
       <r>  -18.4550    1.0000 </r>
       <r>  -18.4547    1.0000 </r>
       <r>  -16.7785    1.0000 </r>
       <r>  -16.1622    1.0000 </r>
       <r>  -15.2404    1.0000 </r>
       <r>  -14.2609    1.0000 </r>
       <r>  -14.1651    1.0000 </r>
       <r>  -14.1468    1.0000 </r>
       <r>  -12.6052    1.0000 </r>
       <r>  -12.3167    1.0000 </r>
       <r>  -12.3064    1.0000 </r>
       <r>  -12.2619    1.0000 </r>
       <r>  -10.5010    1.0000 </r>
       <r>  -10.4719    1.0000 </r>
       <r>  -10.1686    1.0000 </r>
       <r>   -9.1864    1.0000 </r>
       <r>   -9.1755    1.0000 </r>
       <r>   -9.1320    1.0000 </r>
       <r>   -9.1064    1.0000 </r>
       <r>   -8.4282    1.0000 </r>
       <r>   -8.4244    1.0000 </r>
       <r>   -8.0922    1.0000 </r>
       <r>   -8.0560    1.0000 </r>
       <r>   -7.1924    1.0000 </r>
       <r>   -7.1897    1.0000 </r>
       <r>   -6.4102    1.0000 </r>
       <r>   -6.1277    1.0000 </r>
       <r>   -6.1109    1.0000 </r>
       <r>   -6.0979    1.0000 </r>
       <r>   -4.2576    1.0000 </r>
       <r>   -3.8995    1.0000 </r>
       <r>   -1.7102    0.0000 </r>
       <r>   -1.2655    0.0000 </r>
       <r>    0.2593    0.0000 </r>
       <r>    0.2874    0.0000 </r>
       <r>    0.7374    0.0000 </r>
       <r>    1.5321    0.0000 </r>
       <r>    1.8560    0.0000 </r>
       <r>    2.0075    0.0000 </r>
       <r>    2.0167    0.0000 </r>
       <r>    2.7783    0.0000 </r>
      </set>
      <set comment="kpoint 14">
       <r>  -21.8819    1.0000 </r>
       <r>  -21.1382    1.0000 </r>
       <r>  -20.7690    1.0000 </r>
       <r>  -19.6755    1.0000 </r>
       <r>  -18.9581    1.0000 </r>
       <r>  -17.9174    1.0000 </r>
       <r>  -17.5989    1.0000 </r>
       <r>  -17.5690    1.0000 </r>
       <r>  -16.6661    1.0000 </r>
       <r>  -15.2703    1.0000 </r>
       <r>  -15.2369    1.0000 </r>
       <r>  -14.6339    1.0000 </r>
       <r>  -13.7191    1.0000 </r>
       <r>  -12.8299    1.0000 </r>
       <r>  -11.9080    1.0000 </r>
       <r>  -11.6973    1.0000 </r>
       <r>  -11.3788    1.0000 </r>
       <r>  -10.0307    1.0000 </r>
       <r>   -9.9271    1.0000 </r>
       <r>   -9.9148    1.0000 </r>
       <r>   -9.7123    1.0000 </r>
       <r>   -9.6108    1.0000 </r>
       <r>   -9.2968    1.0000 </r>
       <r>   -9.2476    1.0000 </r>
       <r>   -9.0386    1.0000 </r>
       <r>   -8.6059    1.0000 </r>
       <r>   -8.2488    1.0000 </r>
       <r>   -7.5942    1.0000 </r>
       <r>   -7.3515    1.0000 </r>
       <r>   -7.1142    1.0000 </r>
       <r>   -6.5742    1.0000 </r>
       <r>   -6.5649    1.0000 </r>
       <r>   -5.5837    1.0000 </r>
       <r>   -5.3966    1.0000 </r>
       <r>   -5.0788    1.0000 </r>
       <r>   -4.4213    1.0000 </r>
       <r>   -1.3139    0.0000 </r>
       <r>   -0.6668    0.0000 </r>
       <r>   -0.4140    0.0000 </r>
       <r>   -0.2944    0.0000 </r>
       <r>    1.0280    0.0000 </r>
       <r>    1.2175    0.0000 </r>
       <r>    1.8262    0.0000 </r>
       <r>    2.0445    0.0000 </r>
       <r>    2.1539    0.0000 </r>
       <r>    2.3921    0.0000 </r>
      </set>
      <set comment="kpoint 15">
       <r>  -21.8820    1.0000 </r>
       <r>  -21.1384    1.0000 </r>
       <r>  -20.7689    1.0000 </r>
       <r>  -19.6745    1.0000 </r>
       <r>  -18.9577    1.0000 </r>
       <r>  -17.9169    1.0000 </r>
       <r>  -17.5963    1.0000 </r>
       <r>  -17.5703    1.0000 </r>
       <r>  -16.6758    1.0000 </r>
       <r>  -15.2582    1.0000 </r>
       <r>  -15.2320    1.0000 </r>
       <r>  -14.6443    1.0000 </r>
       <r>  -13.7402    1.0000 </r>
       <r>  -12.8088    1.0000 </r>
       <r>  -11.8858    1.0000 </r>
       <r>  -11.6748    1.0000 </r>
       <r>  -11.3997    1.0000 </r>
       <r>  -10.0582    1.0000 </r>
       <r>   -9.9264    1.0000 </r>
       <r>   -9.9142    1.0000 </r>
       <r>   -9.6988    1.0000 </r>
       <r>   -9.6376    1.0000 </r>
       <r>   -9.2895    1.0000 </r>
       <r>   -9.2502    1.0000 </r>
       <r>   -9.0383    1.0000 </r>
       <r>   -8.6062    1.0000 </r>
       <r>   -8.2476    1.0000 </r>
       <r>   -7.5834    1.0000 </r>
       <r>   -7.3557    1.0000 </r>
       <r>   -7.1575    1.0000 </r>
       <r>   -6.5724    1.0000 </r>
       <r>   -6.5282    1.0000 </r>
       <r>   -5.5729    1.0000 </r>
       <r>   -5.3851    1.0000 </r>
       <r>   -5.0668    1.0000 </r>
       <r>   -4.4457    1.0000 </r>
       <r>   -1.2768    0.0000 </r>
       <r>   -0.6863    0.0000 </r>
       <r>   -0.4406    0.0000 </r>
       <r>   -0.3129    0.0000 </r>
       <r>    1.0281    0.0000 </r>
       <r>    1.2379    0.0000 </r>
       <r>    1.8262    0.0000 </r>
       <r>    2.0444    0.0000 </r>
       <r>    2.1539    0.0000 </r>
       <r>    2.4073    0.0000 </r>
      </set>
      <set comment="kpoint 16">
       <r>  -21.8821    1.0000 </r>
       <r>  -21.1384    1.0000 </r>
       <r>  -20.7687    1.0000 </r>
       <r>  -19.6744    1.0000 </r>
       <r>  -18.9590    1.0000 </r>
       <r>  -17.9178    1.0000 </r>
       <r>  -17.5990    1.0000 </r>
       <r>  -17.5655    1.0000 </r>
       <r>  -16.6711    1.0000 </r>
       <r>  -15.2659    1.0000 </r>
       <r>  -15.2493    1.0000 </r>
       <r>  -14.6258    1.0000 </r>
       <r>  -13.7225    1.0000 </r>
       <r>  -12.8251    1.0000 </r>
       <r>  -11.9044    1.0000 </r>
       <r>  -11.6762    1.0000 </r>
       <r>  -11.3867    1.0000 </r>
       <r>  -10.0364    1.0000 </r>
       <r>   -9.9144    1.0000 </r>
       <r>   -9.8974    1.0000 </r>
       <r>   -9.7248    1.0000 </r>
       <r>   -9.6374    1.0000 </r>
       <r>   -9.2842    1.0000 </r>
       <r>   -9.2663    1.0000 </r>
       <r>   -9.0365    1.0000 </r>
       <r>   -8.6086    1.0000 </r>
       <r>   -8.2797    1.0000 </r>
       <r>   -7.5583    1.0000 </r>
       <r>   -7.3563    1.0000 </r>
       <r>   -7.1532    1.0000 </r>
       <r>   -6.5657    1.0000 </r>
       <r>   -6.5324    1.0000 </r>
       <r>   -5.5898    1.0000 </r>
       <r>   -5.3756    1.0000 </r>
       <r>   -5.0749    1.0000 </r>
       <r>   -4.4310    1.0000 </r>
       <r>   -1.2995    0.0000 </r>
       <r>   -0.7046    0.0000 </r>
       <r>   -0.4231    0.0000 </r>
       <r>   -0.2802    0.0000 </r>
       <r>    1.0281    0.0000 </r>
       <r>    1.2183    0.0000 </r>
       <r>    1.8262    0.0000 </r>
       <r>    2.0446    0.0000 </r>
       <r>    2.1539    0.0000 </r>
       <r>    2.4105    0.0000 </r>
      </set>
      <set comment="kpoint 17">
       <r>  -21.8821    1.0000 </r>
       <r>  -21.1385    1.0000 </r>
       <r>  -20.7686    1.0000 </r>
       <r>  -19.6745    1.0000 </r>
       <r>  -18.9578    1.0000 </r>
       <r>  -17.9178    1.0000 </r>
       <r>  -17.5965    1.0000 </r>
       <r>  -17.5685    1.0000 </r>
       <r>  -16.6752    1.0000 </r>
       <r>  -15.2699    1.0000 </r>
       <r>  -15.2318    1.0000 </r>
       <r>  -14.6351    1.0000 </r>
       <r>  -13.7358    1.0000 </r>
       <r>  -12.8132    1.0000 </r>
       <r>  -11.8897    1.0000 </r>
       <r>  -11.6672    1.0000 </r>
       <r>  -11.3994    1.0000 </r>
       <r>  -10.0518    1.0000 </r>
       <r>   -9.9141    1.0000 </r>
       <r>   -9.9100    1.0000 </r>
       <r>   -9.7106    1.0000 </r>
       <r>   -9.6455    1.0000 </r>
       <r>   -9.2827    1.0000 </r>
       <r>   -9.2629    1.0000 </r>
       <r>   -9.0371    1.0000 </r>
       <r>   -8.6077    1.0000 </r>
       <r>   -8.2681    1.0000 </r>
       <r>   -7.5628    1.0000 </r>
       <r>   -7.3577    1.0000 </r>
       <r>   -7.1687    1.0000 </r>
       <r>   -6.5701    1.0000 </r>
       <r>   -6.5166    1.0000 </r>
       <r>   -5.5809    1.0000 </r>
       <r>   -5.3746    1.0000 </r>
       <r>   -5.0686    1.0000 </r>
       <r>   -4.4438    1.0000 </r>
       <r>   -1.2798    0.0000 </r>
       <r>   -0.7058    0.0000 </r>
       <r>   -0.4337    0.0000 </r>
       <r>   -0.3002    0.0000 </r>
       <r>    1.0281    0.0000 </r>
       <r>    1.2313    0.0000 </r>
       <r>    1.8263    0.0000 </r>
       <r>    2.0445    0.0000 </r>
       <r>    2.1539    0.0000 </r>
       <r>    2.4148    0.0000 </r>
      </set>
      <set comment="kpoint 18">
       <r>  -21.8819    1.0000 </r>
       <r>  -21.1386    1.0000 </r>
       <r>  -20.7686    1.0000 </r>
       <r>  -19.6748    1.0000 </r>
       <r>  -18.9587    1.0000 </r>
       <r>  -17.9177    1.0000 </r>
       <r>  -17.5961    1.0000 </r>
       <r>  -17.5707    1.0000 </r>
       <r>  -16.6664    1.0000 </r>
       <r>  -15.2699    1.0000 </r>
       <r>  -15.2482    1.0000 </r>
       <r>  -14.6246    1.0000 </r>
       <r>  -13.7138    1.0000 </r>
       <r>  -12.8332    1.0000 </r>
       <r>  -11.9146    1.0000 </r>
       <r>  -11.6903    1.0000 </r>
       <r>  -11.3773    1.0000 </r>
       <r>  -10.0275    1.0000 </r>
       <r>   -9.9146    1.0000 </r>
       <r>   -9.9075    1.0000 </r>
       <r>   -9.7241    1.0000 </r>
       <r>   -9.6189    1.0000 </r>
       <r>   -9.2923    1.0000 </r>
       <r>   -9.2572    1.0000 </r>
       <r>   -9.0375    1.0000 </r>
       <r>   -8.6075    1.0000 </r>
       <r>   -8.2707    1.0000 </r>
       <r>   -7.5728    1.0000 </r>
       <r>   -7.3532    1.0000 </r>
       <r>   -7.1261    1.0000 </r>
       <r>   -6.5628    1.0000 </r>
       <r>   -6.5611    1.0000 </r>
       <r>   -5.5912    1.0000 </r>
       <r>   -5.3862    1.0000 </r>
       <r>   -5.0809    1.0000 </r>
       <r>   -4.4196    1.0000 </r>
       <r>   -1.3166    0.0000 </r>
       <r>   -0.6842    0.0000 </r>
       <r>   -0.4136    0.0000 </r>
       <r>   -0.2776    0.0000 </r>
       <r>    1.0280    0.0000 </r>
       <r>    1.2112    0.0000 </r>
       <r>    1.8262    0.0000 </r>
       <r>    2.0447    0.0000 </r>
       <r>    2.1539    0.0000 </r>
       <r>    2.5526    0.0000 </r>
      </set>
      <set comment="kpoint 19">
       <r>  -21.8820    1.0000 </r>
       <r>  -21.1378    1.0000 </r>
       <r>  -20.7695    1.0000 </r>
       <r>  -19.6751    1.0000 </r>
       <r>  -18.9582    1.0000 </r>
       <r>  -17.9167    1.0000 </r>
       <r>  -17.6014    1.0000 </r>
       <r>  -17.5658    1.0000 </r>
       <r>  -16.6714    1.0000 </r>
       <r>  -15.2523    1.0000 </r>
       <r>  -15.2405    1.0000 </r>
       <r>  -14.6443    1.0000 </r>
       <r>  -13.7322    1.0000 </r>
       <r>  -12.8175    1.0000 </r>
       <r>  -11.8941    1.0000 </r>
       <r>  -11.6906    1.0000 </r>
       <r>  -11.3887    1.0000 </r>
       <r>  -10.0461    1.0000 </r>
       <r>   -9.9338    1.0000 </r>
       <r>   -9.9146    1.0000 </r>
       <r>   -9.7007    1.0000 </r>
       <r>   -9.6211    1.0000 </r>
       <r>   -9.2958    1.0000 </r>
       <r>   -9.2438    1.0000 </r>
       <r>   -9.0388    1.0000 </r>
       <r>   -8.6054    1.0000 </r>
       <r>   -8.2373    1.0000 </r>
       <r>   -7.6003    1.0000 </r>
       <r>   -7.3525    1.0000 </r>
       <r>   -7.1302    1.0000 </r>
       <r>   -6.5701    1.0000 </r>
       <r>   -6.5569    1.0000 </r>
       <r>   -5.5742    1.0000 </r>
       <r>   -5.3966    1.0000 </r>
       <r>   -5.0712    1.0000 </r>
       <r>   -4.4346    1.0000 </r>
       <r>   -1.2938    0.0000 </r>
       <r>   -0.6677    0.0000 </r>
       <r>   -0.4307    0.0000 </r>
       <r>   -0.3095    0.0000 </r>
       <r>    1.0281    0.0000 </r>
       <r>    1.2312    0.0000 </r>
       <r>    1.8262    0.0000 </r>
       <r>    2.0444    0.0000 </r>
       <r>    2.1539    0.0000 </r>
       <r>    2.3958    0.0000 </r>
      </set>
      <set comment="kpoint 20">
       <r>  -21.5734    1.0000 </r>
       <r>  -21.5511    1.0000 </r>
       <r>  -20.8220    1.0000 </r>
       <r>  -19.7271    1.0000 </r>
       <r>  -18.3223    1.0000 </r>
       <r>  -18.2900    1.0000 </r>
       <r>  -17.3239    1.0000 </r>
       <r>  -17.2898    1.0000 </r>
       <r>  -16.9936    1.0000 </r>
       <r>  -15.9234    1.0000 </r>
       <r>  -15.0274    1.0000 </r>
       <r>  -15.0014    1.0000 </r>
       <r>  -13.2968    1.0000 </r>
       <r>  -13.2691    1.0000 </r>
       <r>  -11.3744    1.0000 </r>
       <r>  -10.9993    1.0000 </r>
       <r>  -10.9752    1.0000 </r>
       <r>  -10.5060    1.0000 </r>
       <r>  -10.4840    1.0000 </r>
       <r>   -9.8878    1.0000 </r>
       <r>   -9.6542    1.0000 </r>
       <r>   -9.5458    1.0000 </r>
       <r>   -9.5275    1.0000 </r>
       <r>   -9.3480    1.0000 </r>
       <r>   -8.6661    1.0000 </r>
       <r>   -8.3996    1.0000 </r>
       <r>   -8.1286    1.0000 </r>
       <r>   -8.0809    1.0000 </r>
       <r>   -7.4068    1.0000 </r>
       <r>   -7.0997    1.0000 </r>
       <r>   -7.0456    1.0000 </r>
       <r>   -5.8705    1.0000 </r>
       <r>   -5.8426    1.0000 </r>
       <r>   -5.0784    1.0000 </r>
       <r>   -5.0199    1.0000 </r>
       <r>   -4.9949    1.0000 </r>
       <r>   -1.0683    0.0000 </r>
       <r>   -0.8432    0.0000 </r>
       <r>   -0.8149    0.0000 </r>
       <r>    0.3984    0.0000 </r>
       <r>    0.4263    0.0000 </r>
       <r>    1.4626    0.0000 </r>
       <r>    1.4652    0.0000 </r>
       <r>    2.2660    0.0000 </r>
       <r>    2.2670    0.0000 </r>
       <r>    2.6006    0.0000 </r>
      </set>
      <set comment="kpoint 21">
       <r>  -21.5630    1.0000 </r>
       <r>  -21.5620    1.0000 </r>
       <r>  -20.8216    1.0000 </r>
       <r>  -19.7264    1.0000 </r>
       <r>  -18.3071    1.0000 </r>
       <r>  -18.3059    1.0000 </r>
       <r>  -17.3096    1.0000 </r>
       <r>  -17.3061    1.0000 </r>
       <r>  -16.9869    1.0000 </r>
       <r>  -15.9391    1.0000 </r>
       <r>  -15.0204    1.0000 </r>
       <r>  -14.9982    1.0000 </r>
       <r>  -13.2946    1.0000 </r>
       <r>  -13.2690    1.0000 </r>
       <r>  -11.3598    1.0000 </r>
       <r>  -11.0032    1.0000 </r>
       <r>  -10.9734    1.0000 </r>
       <r>  -10.5121    1.0000 </r>
       <r>  -10.4880    1.0000 </r>
       <r>   -9.9064    1.0000 </r>
       <r>   -9.6338    1.0000 </r>
       <r>   -9.5366    1.0000 </r>
       <r>   -9.5357    1.0000 </r>
       <r>   -9.3355    1.0000 </r>
       <r>   -8.6674    1.0000 </r>
       <r>   -8.4186    1.0000 </r>
       <r>   -8.1334    1.0000 </r>
       <r>   -8.1162    1.0000 </r>
       <r>   -7.4092    1.0000 </r>
       <r>   -7.0607    1.0000 </r>
       <r>   -7.0416    1.0000 </r>
       <r>   -5.8620    1.0000 </r>
       <r>   -5.8502    1.0000 </r>
       <r>   -5.0659    1.0000 </r>
       <r>   -5.0218    1.0000 </r>
       <r>   -4.9997    1.0000 </r>
       <r>   -1.0895    0.0000 </r>
       <r>   -0.8424    0.0000 </r>
       <r>   -0.8037    0.0000 </r>
       <r>    0.3973    0.0000 </r>
       <r>    0.4250    0.0000 </r>
       <r>    1.4639    0.0000 </r>
       <r>    1.4640    0.0000 </r>
       <r>    2.2665    0.0000 </r>
       <r>    2.2666    0.0000 </r>
       <r>    2.4852    0.0000 </r>
      </set>
      <set comment="kpoint 22">
       <r>  -21.5737    1.0000 </r>
       <r>  -21.5514    1.0000 </r>
       <r>  -20.8213    1.0000 </r>
       <r>  -19.7261    1.0000 </r>
       <r>  -18.3229    1.0000 </r>
       <r>  -18.2902    1.0000 </r>
       <r>  -17.3258    1.0000 </r>
       <r>  -17.2919    1.0000 </r>
       <r>  -16.9792    1.0000 </r>
       <r>  -15.9548    1.0000 </r>
       <r>  -15.0179    1.0000 </r>
       <r>  -14.9920    1.0000 </r>
       <r>  -13.2952    1.0000 </r>
       <r>  -13.2676    1.0000 </r>
       <r>  -11.3427    1.0000 </r>
       <r>  -11.0015    1.0000 </r>
       <r>  -10.9763    1.0000 </r>
       <r>  -10.5166    1.0000 </r>
       <r>  -10.4932    1.0000 </r>
       <r>   -9.9232    1.0000 </r>
       <r>   -9.6162    1.0000 </r>
       <r>   -9.5447    1.0000 </r>
       <r>   -9.5265    1.0000 </r>
       <r>   -9.3228    1.0000 </r>
       <r>   -8.6686    1.0000 </r>
       <r>   -8.4413    1.0000 </r>
       <r>   -8.1616    1.0000 </r>
       <r>   -8.1211    1.0000 </r>
       <r>   -7.4118    1.0000 </r>
       <r>   -7.0612    1.0000 </r>
       <r>   -7.0032    1.0000 </r>
       <r>   -5.8695    1.0000 </r>
       <r>   -5.8417    1.0000 </r>
       <r>   -5.0521    1.0000 </r>
       <r>   -5.0292    1.0000 </r>
       <r>   -4.9999    1.0000 </r>
       <r>   -1.1119    0.0000 </r>
       <r>   -0.8299    0.0000 </r>
       <r>   -0.8031    0.0000 </r>
       <r>    0.3958    0.0000 </r>
       <r>    0.4237    0.0000 </r>
       <r>    1.4627    0.0000 </r>
       <r>    1.4652    0.0000 </r>
       <r>    2.2662    0.0000 </r>
       <r>    2.2671    0.0000 </r>
       <r>    2.4843    0.0000 </r>
      </set>
      <set comment="kpoint 23">
       <r>  -21.6157    1.0000 </r>
       <r>  -21.2552    1.0000 </r>
       <r>  -21.2327    1.0000 </r>
       <r>  -19.0765    1.0000 </r>
       <r>  -19.0449    1.0000 </r>
       <r>  -18.3554    1.0000 </r>
       <r>  -17.1035    1.0000 </r>
       <r>  -17.0796    1.0000 </r>
       <r>  -16.7035    1.0000 </r>
       <r>  -15.6942    1.0000 </r>
       <r>  -15.6203    1.0000 </r>
       <r>  -15.5932    1.0000 </r>
       <r>  -12.9049    1.0000 </r>
       <r>  -12.2868    1.0000 </r>
       <r>  -12.2605    1.0000 </r>
       <r>  -11.3690    1.0000 </r>
       <r>  -10.5588    1.0000 </r>
       <r>  -10.5462    1.0000 </r>
       <r>  -10.5177    1.0000 </r>
       <r>   -9.8384    1.0000 </r>
       <r>   -9.8130    1.0000 </r>
       <r>   -9.5995    1.0000 </r>
       <r>   -9.1700    1.0000 </r>
       <r>   -9.1519    1.0000 </r>
       <r>   -8.8503    1.0000 </r>
       <r>   -8.8012    1.0000 </r>
       <r>   -7.8613    1.0000 </r>
       <r>   -7.7081    1.0000 </r>
       <r>   -7.6527    1.0000 </r>
       <r>   -7.1044    1.0000 </r>
       <r>   -6.6768    1.0000 </r>
       <r>   -6.6486    1.0000 </r>
       <r>   -5.8982    1.0000 </r>
       <r>   -5.0230    1.0000 </r>
       <r>   -5.0012    1.0000 </r>
       <r>   -4.6592    1.0000 </r>
       <r>   -1.2490    0.0000 </r>
       <r>   -1.0274    0.0000 </r>
       <r>   -0.9989    0.0000 </r>
       <r>    0.5398    0.0000 </r>
       <r>    1.3914    0.0000 </r>
       <r>    1.4591    0.0000 </r>
       <r>    1.4924    0.0000 </r>
       <r>    1.8987    0.0000 </r>
       <r>    1.9013    0.0000 </r>
       <r>    2.1933    0.0000 </r>
      </set>
      <set comment="kpoint 24">
       <r>  -21.6160    1.0000 </r>
       <r>  -21.2550    1.0000 </r>
       <r>  -21.2326    1.0000 </r>
       <r>  -19.0758    1.0000 </r>
       <r>  -19.0445    1.0000 </r>
       <r>  -18.3562    1.0000 </r>
       <r>  -17.0995    1.0000 </r>
       <r>  -17.0753    1.0000 </r>
       <r>  -16.7185    1.0000 </r>
       <r>  -15.6630    1.0000 </r>
       <r>  -15.6331    1.0000 </r>
       <r>  -15.6053    1.0000 </r>
       <r>  -12.9315    1.0000 </r>
       <r>  -12.2663    1.0000 </r>
       <r>  -12.2407    1.0000 </r>
       <r>  -11.3394    1.0000 </r>
       <r>  -10.5856    1.0000 </r>
       <r>  -10.5641    1.0000 </r>
       <r>  -10.5416    1.0000 </r>
       <r>   -9.8252    1.0000 </r>
       <r>   -9.8012    1.0000 </r>
       <r>   -9.5985    1.0000 </r>
       <r>   -9.1704    1.0000 </r>
       <r>   -9.1523    1.0000 </r>
       <r>   -8.8433    1.0000 </r>
       <r>   -8.7928    1.0000 </r>
       <r>   -7.9064    1.0000 </r>
       <r>   -7.7137    1.0000 </r>
       <r>   -7.6639    1.0000 </r>
       <r>   -7.0558    1.0000 </r>
       <r>   -6.6814    1.0000 </r>
       <r>   -6.6534    1.0000 </r>
       <r>   -5.8891    1.0000 </r>
       <r>   -5.0097    1.0000 </r>
       <r>   -4.9873    1.0000 </r>
       <r>   -4.6859    1.0000 </r>
       <r>   -1.2074    0.0000 </r>
       <r>   -1.0499    0.0000 </r>
       <r>   -1.0210    0.0000 </r>
       <r>    0.5173    0.0000 </r>
       <r>    1.3916    0.0000 </r>
       <r>    1.4733    0.0000 </r>
       <r>    1.5064    0.0000 </r>
       <r>    1.8986    0.0000 </r>
       <r>    1.9012    0.0000 </r>
       <r>    2.1935    0.0000 </r>
      </set>
      <set comment="kpoint 25">
       <r>  -21.6161    1.0000 </r>
       <r>  -21.2440    1.0000 </r>
       <r>  -21.2435    1.0000 </r>
       <r>  -19.0616    1.0000 </r>
       <r>  -19.0599    1.0000 </r>
       <r>  -18.3552    1.0000 </r>
       <r>  -17.0937    1.0000 </r>
       <r>  -17.0851    1.0000 </r>
       <r>  -16.7110    1.0000 </r>
       <r>  -15.6779    1.0000 </r>
       <r>  -15.6261    1.0000 </r>
       <r>  -15.6007    1.0000 </r>
       <r>  -12.9188    1.0000 </r>
       <r>  -12.2739    1.0000 </r>
       <r>  -12.2530    1.0000 </r>
       <r>  -11.3546    1.0000 </r>
       <r>  -10.5629    1.0000 </r>
       <r>  -10.5559    1.0000 </r>
       <r>  -10.5367    1.0000 </r>
       <r>   -9.8317    1.0000 </r>
       <r>   -9.8079    1.0000 </r>
       <r>   -9.5992    1.0000 </r>
       <r>   -9.1620    1.0000 </r>
       <r>   -9.1601    1.0000 </r>
       <r>   -8.8441    1.0000 </r>
       <r>   -8.7994    1.0000 </r>
       <r>   -7.8851    1.0000 </r>
       <r>   -7.7089    1.0000 </r>
       <r>   -7.6601    1.0000 </r>
       <r>   -7.0794    1.0000 </r>
       <r>   -6.6682    1.0000 </r>
       <r>   -6.6622    1.0000 </r>
       <r>   -5.8934    1.0000 </r>
       <r>   -5.0175    1.0000 </r>
       <r>   -4.9930    1.0000 </r>
       <r>   -4.6725    1.0000 </r>
       <r>   -1.2285    0.0000 </r>
       <r>   -1.0442    0.0000 </r>
       <r>   -1.0041    0.0000 </r>
       <r>    0.5284    0.0000 </r>
       <r>    1.3915    0.0000 </r>
       <r>    1.4736    0.0000 </r>
       <r>    1.4922    0.0000 </r>
       <r>    1.8998    0.0000 </r>
       <r>    1.9000    0.0000 </r>
       <r>    2.1934    0.0000 </r>
      </set>
     </set>
    </set>
   </array>
  </eigenvalues>
  <separator name="orbital magnetization" >
   <v name="MAGDIPOLOUT">      0.00000000      0.00000000      0.00000000</v>
  </separator>
  <dos>
   <i name="efermi">     -2.75523048 </i>
   <total>
    <array>
     <dimension dim="1">gridpoints</dimension>
     <dimension dim="2">spin</dimension>
     <field>energy</field>
     <field>total</field>
     <field>integrated</field>
     <set>
      <set comment="spin 1">
       <r>   -23.5116     0.0000     0.0000 </r>
       <r>   -23.4196     0.0000     0.0000 </r>
       <r>   -23.3275     0.0000     0.0000 </r>
       <r>   -23.2354     0.0000     0.0000 </r>
       <r>   -23.1434     0.0000     0.0000 </r>
       <r>   -23.0513     0.0000     0.0000 </r>
       <r>   -22.9592     0.0000     0.0000 </r>
       <r>   -22.8672     0.0000     0.0000 </r>
       <r>   -22.7751     0.0000     0.0000 </r>
       <r>   -22.6831     0.0000     0.0000 </r>
       <r>   -22.5910     0.0000     0.0000 </r>
       <r>   -22.4989     0.0000     0.0000 </r>
       <r>   -22.4069     0.0000     0.0000 </r>
       <r>   -22.3148     0.0236     0.0022 </r>
       <r>   -22.2227     1.1019     0.1036 </r>
       <r>   -22.1307     2.3662     0.3215 </r>
       <r>   -22.0386     3.5663     0.6498 </r>
       <r>   -21.9465     1.5373     0.7913 </r>
       <r>   -21.8545     4.0225     1.1616 </r>
       <r>   -21.7624     2.8376     1.4229 </r>
       <r>   -21.6704     1.1172     1.5257 </r>
       <r>   -21.5783     3.8757     1.8826 </r>
       <r>   -21.4862     3.8618     2.2381 </r>
       <r>   -21.3942     1.6630     2.3912 </r>
       <r>   -21.3021     1.3593     2.5163 </r>
       <r>   -21.2100     4.2000     2.9030 </r>
       <r>   -21.1180     4.6475     3.3309 </r>
       <r>   -21.0259     1.5075     3.4697 </r>
       <r>   -20.9338     1.1268     3.5734 </r>
       <r>   -20.8418     2.3700     3.7916 </r>
       <r>   -20.7497     5.5220     4.3000 </r>
       <r>   -20.6577     2.1620     4.4990 </r>
       <r>   -20.5656     4.2173     4.8873 </r>
       <r>   -20.4735     0.5598     4.9388 </r>
       <r>   -20.3815     0.5563     4.9900 </r>
       <r>   -20.2894     5.1323     5.4625 </r>
       <r>   -20.1973     4.6845     5.8938 </r>
       <r>   -20.1053     2.8825     6.1592 </r>
       <r>   -20.0132     1.2184     6.2713 </r>
       <r>   -19.9211     3.9144     6.6317 </r>
       <r>   -19.8291     0.2372     6.6535 </r>
       <r>   -19.7370     1.4102     6.7834 </r>
       <r>   -19.6450     7.4682     7.4709 </r>
       <r>   -19.5529     2.7500     7.7241 </r>
       <r>   -19.4608     4.0143     8.0937 </r>
       <r>   -19.3688     0.3235     8.1234 </r>
       <r>   -19.2767     1.8588     8.2946 </r>
       <r>   -19.1846     3.3575     8.6037 </r>
       <r>   -19.0926     1.1452     8.7091 </r>
       <r>   -19.0005     4.6004     9.1326 </r>
       <r>   -18.9084     5.8100     9.6675 </r>
       <r>   -18.8164     2.0936     9.8603 </r>
       <r>   -18.7243     3.9959    10.2281 </r>
       <r>   -18.6323     1.0663    10.3263 </r>
       <r>   -18.5402     0.0554    10.3314 </r>
       <r>   -18.4481     3.0112    10.6086 </r>
       <r>   -18.3561     4.0569    10.9821 </r>
       <r>   -18.2640     5.4804    11.4867 </r>
       <r>   -18.1719     2.6280    11.7286 </r>
       <r>   -18.0799     4.1418    12.1099 </r>
       <r>   -17.9878     1.9881    12.2930 </r>
       <r>   -17.8957     3.8036    12.6431 </r>
       <r>   -17.8037     1.4344    12.7752 </r>
       <r>   -17.7116     0.0072    12.7759 </r>
       <r>   -17.6196     1.8351    12.9448 </r>
       <r>   -17.5275     8.5964    13.7362 </r>
       <r>   -17.4354     4.9515    14.1921 </r>
       <r>   -17.3434     1.5094    14.3310 </r>
       <r>   -17.2513     4.7017    14.7639 </r>
       <r>   -17.1592     2.4267    14.9873 </r>
       <r>   -17.0672     3.8177    15.3388 </r>
       <r>   -16.9751     3.0776    15.6221 </r>
       <r>   -16.8830     1.0010    15.7143 </r>
       <r>   -16.7910     1.6008    15.8616 </r>
       <r>   -16.6989     8.6061    16.6539 </r>
       <r>   -16.6069     5.5590    17.1657 </r>
       <r>   -16.5148     0.1949    17.1837 </r>
       <r>   -16.4227     0.0000    17.1837 </r>
       <r>   -16.3307     0.0000    17.1837 </r>
       <r>   -16.2386     0.0435    17.1877 </r>
       <r>   -16.1465     1.7213    17.3461 </r>
       <r>   -16.0545     1.2012    17.4567 </r>
       <r>   -15.9624     4.7306    17.8922 </r>
       <r>   -15.8703     2.8532    18.1549 </r>
       <r>   -15.7783     0.6039    18.2105 </r>
       <r>   -15.6862     3.2623    18.5109 </r>
       <r>   -15.5942     5.1809    18.9878 </r>
       <r>   -15.5021     1.6750    19.1420 </r>
       <r>   -15.4100     0.0918    19.1505 </r>
       <r>   -15.3180     1.6761    19.3048 </r>
       <r>   -15.2259     9.7563    20.2030 </r>
       <r>   -15.1338     3.5451    20.5294 </r>
       <r>   -15.0418     1.0620    20.6271 </r>
       <r>   -14.9497     4.8502    21.0737 </r>
       <r>   -14.8576     4.3874    21.4776 </r>
       <r>   -14.7656     1.3889    21.6055 </r>
       <r>   -14.6735     2.8193    21.8650 </r>
       <r>   -14.5815     8.3918    22.6376 </r>
       <r>   -14.4894     1.0539    22.7346 </r>
       <r>   -14.3973     0.1144    22.7451 </r>
       <r>   -14.3053     3.7735    23.0925 </r>
       <r>   -14.2132     4.1875    23.4781 </r>
       <r>   -14.1211     4.2834    23.8724 </r>
       <r>   -14.0291     1.0274    23.9670 </r>
       <r>   -13.9370     3.3353    24.2741 </r>
       <r>   -13.8449     1.8926    24.4483 </r>
       <r>   -13.7529     1.2968    24.5677 </r>
       <r>   -13.6608     3.9577    24.9321 </r>
       <r>   -13.5688     2.3405    25.1475 </r>
       <r>   -13.4767     4.2750    25.5411 </r>
       <r>   -13.3846     1.4535    25.6749 </r>
       <r>   -13.2926     2.4830    25.9035 </r>
       <r>   -13.2005     3.6212    26.2369 </r>
       <r>   -13.1084     0.0880    26.2450 </r>
       <r>   -13.0164     0.9614    26.3335 </r>
       <r>   -12.9243     9.1199    27.1731 </r>
       <r>   -12.8322     5.2201    27.6537 </r>
       <r>   -12.7402     3.2495    27.9528 </r>
       <r>   -12.6481     0.3924    27.9890 </r>
       <r>   -12.5561     2.1036    28.1826 </r>
       <r>   -12.4640     0.2941    28.2097 </r>
       <r>   -12.3719     1.6047    28.3575 </r>
       <r>   -12.2799     7.8566    29.0808 </r>
       <r>   -12.1878     8.7079    29.8824 </r>
       <r>   -12.0957     3.0041    30.1590 </r>
       <r>   -12.0037     0.0584    30.1644 </r>
       <r>   -11.9116     1.9586    30.3447 </r>
       <r>   -11.8195     3.3362    30.6518 </r>
       <r>   -11.7275     3.7059    30.9930 </r>
       <r>   -11.6354     6.3941    31.5817 </r>
       <r>   -11.5434     0.5532    31.6326 </r>
       <r>   -11.4513     0.2559    31.6562 </r>
       <r>   -11.3592     6.4750    32.2523 </r>
       <r>   -11.2672     6.0777    32.8118 </r>
       <r>   -11.1751     3.3522    33.1204 </r>
       <r>   -11.0830     5.4897    33.6258 </r>
       <r>   -10.9910     4.7798    34.0659 </r>
       <r>   -10.8989     2.7841    34.3222 </r>
       <r>   -10.8068     0.0469    34.3265 </r>
       <r>   -10.7148     0.0076    34.3272 </r>
       <r>   -10.6227     1.7124    34.4849 </r>
       <r>   -10.5307    10.8625    35.4849 </r>
       <r>   -10.4386    10.4369    36.4458 </r>
       <r>   -10.3465     3.0394    36.7256 </r>
       <r>   -10.2545     5.8634    37.2654 </r>
       <r>   -10.1624     2.0968    37.4584 </r>
       <r>   -10.0703     4.3967    37.8632 </r>
       <r>    -9.9783     4.9014    38.3145 </r>
       <r>    -9.8862    10.8256    39.3111 </r>
       <r>    -9.7941     9.9171    40.2241 </r>
       <r>    -9.7021     6.3236    40.8063 </r>
       <r>    -9.6100     8.6198    41.5998 </r>
       <r>    -9.5180     9.0232    42.4306 </r>
       <r>    -9.4259     5.3879    42.9266 </r>
       <r>    -9.3338     3.9349    43.2888 </r>
       <r>    -9.2418    10.1823    44.2263 </r>
       <r>    -9.1497    12.2133    45.3507 </r>
       <r>    -9.0576    14.5513    46.6903 </r>
       <r>    -8.9656     6.9836    47.3333 </r>
       <r>    -8.8735     3.4104    47.6472 </r>
       <r>    -8.7814    11.8910    48.7420 </r>
       <r>    -8.6894     7.0187    49.3881 </r>
       <r>    -8.5973     7.5291    50.0813 </r>
       <r>    -8.5053     6.8941    50.7160 </r>
       <r>    -8.4132     8.1605    51.4673 </r>
       <r>    -8.3211     3.3793    51.7784 </r>
       <r>    -8.2291     3.9394    52.1411 </r>
       <r>    -8.1370     5.7734    52.6726 </r>
       <r>    -8.0449    13.3733    53.9038 </r>
       <r>    -7.9529     5.5639    54.4160 </r>
       <r>    -7.8608     4.8756    54.8649 </r>
       <r>    -7.7687     1.3042    54.9849 </r>
       <r>    -7.6767     8.2068    55.7405 </r>
       <r>    -7.5846     7.1598    56.3997 </r>
       <r>    -7.4926     5.0477    56.8644 </r>
       <r>    -7.4005     3.0972    57.1495 </r>
       <r>    -7.3084     7.2241    57.8146 </r>
       <r>    -7.2164     2.4614    58.0412 </r>
       <r>    -7.1243     9.8648    58.9494 </r>
       <r>    -7.0322     7.5445    59.6440 </r>
       <r>    -6.9402     3.7489    59.9891 </r>
       <r>    -6.8481     3.5539    60.3163 </r>
       <r>    -6.7560     0.1740    60.3323 </r>
       <r>    -6.6640     4.3811    60.7356 </r>
       <r>    -6.5719    10.5079    61.7030 </r>
       <r>    -6.4799     8.7442    62.5081 </r>
       <r>    -6.3878     4.1700    62.8920 </r>
       <r>    -6.2957     4.0430    63.2642 </r>
       <r>    -6.2037     1.7314    63.4236 </r>
       <r>    -6.1116     4.9397    63.8783 </r>
       <r>    -6.0195     4.9944    64.3381 </r>
       <r>    -5.9275     2.7453    64.5909 </r>
       <r>    -5.8354     7.9031    65.3185 </r>
       <r>    -5.7433     7.1560    65.9773 </r>
       <r>    -5.6513     3.4701    66.2968 </r>
       <r>    -5.5592     3.8030    66.6469 </r>
       <r>    -5.4672     1.4611    66.7814 </r>
       <r>    -5.3751     3.2094    67.0769 </r>
       <r>    -5.2830     2.0645    67.2669 </r>
       <r>    -5.1910     1.5517    67.4098 </r>
       <r>    -5.0989     3.3275    67.7161 </r>
       <r>    -5.0068    15.4553    69.1390 </r>
       <r>    -4.9148     6.1782    69.7078 </r>
       <r>    -4.8227     0.0707    69.7143 </r>
       <r>    -4.7306     0.1549    69.7285 </r>
       <r>    -4.6386     2.0272    69.9152 </r>
       <r>    -4.5465     0.4822    69.9596 </r>
       <r>    -4.4544     1.4671    70.0946 </r>
       <r>    -4.3624     3.9275    70.4562 </r>
       <r>    -4.2703     5.0481    70.9210 </r>
       <r>    -4.1783     2.8154    71.1802 </r>
       <r>    -4.0862     0.0382    71.1837 </r>
       <r>    -3.9941     0.0135    71.1849 </r>
       <r>    -3.9021     1.2373    71.2988 </r>
       <r>    -3.8100     1.3886    71.4267 </r>
       <r>    -3.7179     0.0207    71.4286 </r>
       <r>    -3.6259     0.0185    71.4303 </r>
       <r>    -3.5338     2.2378    71.6363 </r>
       <r>    -3.4417     3.0087    71.9133 </r>
       <r>    -3.3497     0.0552    71.9184 </r>
       <r>    -3.2576     0.0000    71.9184 </r>
       <r>    -3.1656     0.0000    71.9184 </r>
       <r>    -3.0735     0.0000    71.9184 </r>
       <r>    -2.9814     0.0000    71.9184 </r>
       <r>    -2.8894     0.0008    71.9184 </r>
       <r>    -2.7973     0.2747    71.9437 </r>
       <r>    -2.7052     1.2962    72.0631 </r>
       <r>    -2.6132     0.2013    72.0816 </r>
       <r>    -2.5211     0.0004    72.0816 </r>
       <r>    -2.4290     0.0000    72.0816 </r>
       <r>    -2.3370     0.0000    72.0816 </r>
       <r>    -2.2449     0.0000    72.0816 </r>
       <r>    -2.1529     0.0002    72.0816 </r>
       <r>    -2.0608     0.3449    72.1134 </r>
       <r>    -1.9687     4.0773    72.4888 </r>
       <r>    -1.8767     0.8963    72.5713 </r>
       <r>    -1.7846     0.0708    72.5778 </r>
       <r>    -1.6925     1.7370    72.7377 </r>
       <r>    -1.6005     0.8487    72.8159 </r>
       <r>    -1.5084     0.0050    72.8163 </r>
       <r>    -1.4163     0.0055    72.8168 </r>
       <r>    -1.3243     2.1390    73.0138 </r>
       <r>    -1.2322    11.1707    74.0422 </r>
       <r>    -1.1402     2.8951    74.3087 </r>
       <r>    -1.0481     3.5620    74.6366 </r>
       <r>    -0.9560     5.6504    75.1568 </r>
       <r>    -0.8640     1.9562    75.3369 </r>
       <r>    -0.7719     4.0958    75.7140 </r>
       <r>    -0.6798     3.4650    76.0330 </r>
       <r>    -0.5878     4.7597    76.4712 </r>
       <r>    -0.4957     2.9676    76.7444 </r>
       <r>    -0.4036     3.7777    77.0922 </r>
       <r>    -0.3116     3.3042    77.3964 </r>
       <r>    -0.2195     5.1517    77.8707 </r>
       <r>    -0.1275     0.9567    77.9587 </r>
       <r>    -0.0354     0.0054    77.9592 </r>
       <r>     0.0567     0.6022    78.0147 </r>
       <r>     0.1487     4.1205    78.3940 </r>
       <r>     0.2408     1.6610    78.5470 </r>
       <r>     0.3329     4.0348    78.9184 </r>
       <r>     0.4249     3.6405    79.2536 </r>
       <r>     0.5170     3.1431    79.5429 </r>
       <r>     0.6091     3.6434    79.8784 </r>
       <r>     0.7011     1.3423    80.0019 </r>
       <r>     0.7932     5.8603    80.5415 </r>
       <r>     0.8852     5.8685    81.0817 </r>
       <r>     0.9773     1.5019    81.2200 </r>
       <r>     1.0694     4.2844    81.6144 </r>
       <r>     1.1614     1.8463    81.7844 </r>
       <r>     1.2535     5.6247    82.3022 </r>
       <r>     1.3456     2.1348    82.4988 </r>
       <r>     1.4376     7.1309    83.1553 </r>
       <r>     1.5297    13.7476    84.4209 </r>
       <r>     1.6218     4.6119    84.8455 </r>
       <r>     1.7138     4.7216    85.2802 </r>
       <r>     1.8059     3.3362    85.5874 </r>
       <r>     1.8979     8.8997    86.4067 </r>
       <r>     1.9900     8.8650    87.2228 </r>
       <r>     2.0821     9.1381    88.0641 </r>
       <r>     2.1741     7.1021    88.7180 </r>
       <r>     2.2662     6.7811    89.3423 </r>
       <r>     2.3583     7.2163    90.0066 </r>
       <r>     2.4503     5.0618    90.4726 </r>
       <r>     2.5424     4.3410    90.8723 </r>
       <r>     2.6345     2.8947    91.1388 </r>
       <r>     2.7265     2.2870    91.3493 </r>
       <r>     2.8186     4.4598    91.7599 </r>
       <r>     2.9106     2.4782    91.9881 </r>
       <r>     3.0027     0.1297    92.0000 </r>
       <r>     3.0948     0.0000    92.0000 </r>
       <r>     3.1868     0.0000    92.0000 </r>
       <r>     3.2789     0.0000    92.0000 </r>
       <r>     3.3710     0.0000    92.0000 </r>
       <r>     3.4630     0.0000    92.0000 </r>
       <r>     3.5551     0.0000    92.0000 </r>
       <r>     3.6472     0.0000    92.0000 </r>
       <r>     3.7392     0.0000    92.0000 </r>
       <r>     3.8313     0.0000    92.0000 </r>
       <r>     3.9233     0.0000    92.0000 </r>
       <r>     4.0154     0.0000    92.0000 </r>
       <r>     4.1075     0.0000    92.0000 </r>
      </set>
     </set>
    </array>
   </total>
  </dos>
 </calculation>
 <structure name="finalpos" >
  <crystal>
   <varray name="basis" >
    <v>       7.40170591       0.00000000       0.00000000 </v>
    <v>      -3.70085295       6.41006527       0.00000000 </v>
    <v>       0.00000000       0.00000000      20.00000000 </v>
   </varray>
   <i name="volume">    948.90835877 </i>
   <varray name="rec_basis" >
    <v>       0.13510399       0.07800233       0.00000000 </v>
    <v>       0.00000000       0.15600465       0.00000000 </v>
    <v>       0.00000000       0.00000000       0.05000000 </v>
   </varray>
  </crystal>
  <varray name="positions" >
   <v>       0.99729792       0.00000000       0.50000000 </v>
   <v>       0.33333333       0.00000000       0.50000000 </v>
   <v>       0.66666667       0.00000000       0.50000000 </v>
   <v>       0.00000000       0.33333333       0.50000000 </v>
   <v>       0.33333333       0.33333333       0.50000000 </v>
   <v>       0.66666667       0.33333333       0.50000000 </v>
   <v>       0.00000000       0.66666667       0.50000000 </v>
   <v>       0.33333333       0.66666667       0.50000000 </v>
   <v>       0.66666667       0.66666667       0.50000000 </v>
   <v>       0.22222222       0.11111111       0.50000000 </v>
   <v>       0.55555556       0.11111111       0.50000000 </v>
   <v>       0.88888889       0.11111111       0.50000000 </v>
   <v>       0.22222222       0.44444444       0.50000000 </v>
   <v>       0.55555556       0.44444444       0.50000000 </v>
   <v>       0.88888889       0.44444444       0.50000000 </v>
   <v>       0.22222222       0.77777778       0.50000000 </v>
   <v>       0.55555556       0.77777778       0.50000000 </v>
   <v>       0.88888889       0.77777778       0.50000000 </v>
  </varray>
 </structure>
</modeling>
