<?xml version="1.0" encoding="ISO-8859-1"?>
<modeling>
 <generator>
  <i name="program" type="string">vasp </i>
  <i name="version" type="string">6.4.1  </i>
  <i name="subversion" type="string">05Apr23 (build Feb 12 2025 00:37:39) complex                          parallel </i>
  <i name="platform" type="string">LinuxIFC </i>
  <i name="date" type="string">2025 02 14 </i>
  <i name="time" type="string">04:47:55 </i>
 </generator>
 <incar>
  <i type="string" name="SYSTEM">SCF</i>
  <i type="int" name="ISTART">     0</i>
  <i type="int" name="ICHARG">     2</i>
  <i type="int" name="NELM">    60</i>
  <i type="int" name="NELMIN">     6</i>
  <i name="EDIFF">      0.00000100</i>
  <i name="EDIFFG">     -0.00000100</i>
  <i name="ENCUT">    600.00000000</i>
  <i type="string" name="LREAL">Auto</i>
  <i type="int" name="ISMEAR">     0</i>
  <i name="SIGMA">      0.05000000</i>
  <i type="logical" name="LWAVE"> F  </i>
  <i type="logical" name="LCHARG"> F  </i>
 </incar>
 <primitive_cell>
  <structure name="primitive_cell" >
   <crystal>
    <varray name="basis" >
     <v>       7.40170591       0.00000000       0.00000000 </v>
     <v>      -3.70085295       6.41006527       0.00000000 </v>
     <v>       0.00000000       0.00000000      20.00000000 </v>
    </varray>
    <i name="volume">    948.90835877 </i>
    <varray name="rec_basis" >
     <v>       0.13510399       0.07800233       0.00000000 </v>
     <v>       0.00000000       0.15600465       0.00000000 </v>
     <v>       0.00000000       0.00000000       0.05000000 </v>
    </varray>
   </crystal>
   <varray name="positions" >
    <v>       0.99921998       0.99843995       0.50000000 </v>
    <v>       0.33333333       0.00000000       0.50000000 </v>
    <v>       0.66666667       0.00000000       0.50000000 </v>
    <v>       1.00000000       0.33333333       0.50000000 </v>
    <v>       0.33333333       0.33333333       0.50000000 </v>
    <v>       0.66666667       0.33333333       0.50000000 </v>
    <v>       1.00000000       0.66666667       0.50000000 </v>
    <v>       0.33333333       0.66666667       0.50000000 </v>
    <v>       0.66666667       0.66666667       0.50000000 </v>
    <v>       0.22222222       0.11111111       0.50050000 </v>
    <v>       0.55555556       0.11111111       0.50000000 </v>
    <v>       0.88888889       0.11111111       0.50000000 </v>
    <v>       0.22222222       0.44444444       0.50000000 </v>
    <v>       0.55555556       0.44444444       0.50000000 </v>
    <v>       0.88888889       0.44444444       0.50000000 </v>
    <v>       0.22222222       0.77777778       0.50000000 </v>
    <v>       0.55555556       0.77777778       0.50000000 </v>
    <v>       0.88888889       0.77777778       0.50000000 </v>
   </varray>
  </structure>
  <varray name="primitive_index" >
   <v type="int" >        1 </v>
   <v type="int" >        2 </v>
   <v type="int" >        3 </v>
   <v type="int" >        4 </v>
   <v type="int" >        5 </v>
   <v type="int" >        6 </v>
   <v type="int" >        7 </v>
   <v type="int" >        8 </v>
   <v type="int" >        9 </v>
   <v type="int" >       10 </v>
   <v type="int" >       11 </v>
   <v type="int" >       12 </v>
   <v type="int" >       13 </v>
   <v type="int" >       14 </v>
   <v type="int" >       15 </v>
   <v type="int" >       16 </v>
   <v type="int" >       17 </v>
   <v type="int" >       18 </v>
  </varray>
 </primitive_cell>
 <kpoints>
  <generation param="Gamma">
   <v type="int" name="divisions">       7        7        1 </v>
   <v name="usershift">      0.00000000       0.00000000       0.00000000 </v>
   <v name="genvec1">      0.14285714       0.00000000       0.00000000 </v>
   <v name="genvec2">      0.00000000       0.14285714       0.00000000 </v>
   <v name="genvec3">      0.00000000       0.00000000       1.00000000 </v>
   <v name="shift">      0.00000000       0.00000000       0.00000000 </v>
  </generation>
  <varray name="kpointlist" >
   <v>       0.00000000       0.00000000       0.00000000 </v>
   <v>       0.14285714       0.00000000       0.00000000 </v>
   <v>       0.00000000       0.14285714       0.00000000 </v>
   <v>      -0.14285714       0.14285714       0.00000000 </v>
   <v>       0.28571429       0.00000000       0.00000000 </v>
   <v>       0.00000000       0.28571429       0.00000000 </v>
   <v>      -0.28571429       0.28571429       0.00000000 </v>
   <v>       0.42857143       0.00000000       0.00000000 </v>
   <v>       0.00000000       0.42857143       0.00000000 </v>
   <v>      -0.42857143       0.42857143       0.00000000 </v>
   <v>       0.14285714       0.14285714       0.00000000 </v>
   <v>      -0.14285714       0.28571429       0.00000000 </v>
   <v>      -0.28571429       0.14285714       0.00000000 </v>
   <v>       0.28571429       0.14285714       0.00000000 </v>
   <v>      -0.14285714       0.42857143       0.00000000 </v>
   <v>      -0.42857143       0.28571429       0.00000000 </v>
   <v>      -0.28571429       0.42857143       0.00000000 </v>
   <v>       0.14285714       0.28571429       0.00000000 </v>
   <v>       0.42857143      -0.14285714       0.00000000 </v>
   <v>       0.42857143       0.14285714       0.00000000 </v>
   <v>      -0.14285714      -0.42857143       0.00000000 </v>
   <v>       0.42857143       0.42857143       0.00000000 </v>
   <v>       0.28571429       0.28571429       0.00000000 </v>
   <v>      -0.28571429      -0.42857143       0.00000000 </v>
   <v>       0.42857143       0.28571429       0.00000000 </v>
  </varray>
  <varray name="weights" >
   <v>       0.02040816 </v>
   <v>       0.04081633 </v>
   <v>       0.04081633 </v>
   <v>       0.04081633 </v>
   <v>       0.04081633 </v>
   <v>       0.04081633 </v>
   <v>       0.04081633 </v>
   <v>       0.04081633 </v>
   <v>       0.04081633 </v>
   <v>       0.04081633 </v>
   <v>       0.04081633 </v>
   <v>       0.04081633 </v>
   <v>       0.04081633 </v>
   <v>       0.04081633 </v>
   <v>       0.04081633 </v>
   <v>       0.04081633 </v>
   <v>       0.04081633 </v>
   <v>       0.04081633 </v>
   <v>       0.04081633 </v>
   <v>       0.04081633 </v>
   <v>       0.04081633 </v>
   <v>       0.04081633 </v>
   <v>       0.04081633 </v>
   <v>       0.04081633 </v>
   <v>       0.04081633 </v>
  </varray>
 </kpoints>
 <parameters>
  <separator name="general" >
   <i type="string" name="SYSTEM">SCF</i>
   <i type="logical" name="LCOMPAT"> F  </i>
  </separator>
  <separator name="electronic" >
   <i type="string" name="PREC">normal</i>
   <i name="ENMAX">    600.00000000</i>
   <i name="ENAUG">    644.87300000</i>
   <i name="EDIFF">      0.00000100</i>
   <i type="int" name="IALGO">    38</i>
   <i type="int" name="IWAVPR">    10</i>
   <i type="int" name="NBANDS">    46</i>
   <i type="int" name="NBANDSLOW">    -1</i>
   <i type="int" name="NBANDSHIGH">    -1</i>
   <i name="NELECT">     72.00000000</i>
   <i type="int" name="TURBO">     0</i>
   <i type="int" name="IRESTART">     0</i>
   <i type="int" name="NREBOOT">     0</i>
   <i type="int" name="NMIN">     0</i>
   <i name="EREF">      0.00000000</i>
   <separator name="electronic smearing" >
    <i type="int" name="ISMEAR">     0</i>
    <i name="SIGMA">      0.05000000</i>
    <i name="KSPACING">      0.50000000</i>
    <i type="logical" name="KGAMMA"> T  </i>
    <i type="logical" name="KBLOWUP"> T  </i>
   </separator>
   <separator name="electronic projectors" >
    <i type="logical" name="LREAL"> T  </i>
    <v name="ROPT">     -0.00050000</v>
    <i type="int" name="LMAXPAW">  -100</i>
    <i type="int" name="LMAXMIX">     2</i>
    <i type="logical" name="NLSPLINE"> F  </i>
   </separator>
   <separator name="electronic startup" >
    <i type="int" name="ISTART">     0</i>
    <i type="int" name="ICHARG">     2</i>
    <i type="int" name="INIWAV">     1</i>
   </separator>
   <separator name="electronic spin" >
    <i type="int" name="ISPIN">     1</i>
    <i type="logical" name="LNONCOLLINEAR"> F  </i>
    <v name="MAGMOM">      1.00000000      1.00000000      1.00000000      1.00000000      1.00000000      1.00000000      1.00000000      1.00000000      1.00000000      1.00000000      1.00000000      1.00000000      1.00000000      1.00000000      1.00000000      1.00000000      1.00000000      1.00000000</v>
    <i name="NUPDOWN">     -1.00000000</i>
    <i type="logical" name="LSORBIT"> F  </i>
    <v name="SAXIS">      0.00000000      0.00000000      1.00000000</v>
    <i type="logical" name="LSPIRAL"> F  </i>
    <v name="QSPIRAL">      0.00000000      0.00000000      0.00000000</v>
    <i type="logical" name="LZEROZ"> F  </i>
   </separator>
   <separator name="electronic exchange-correlation" >
    <i type="logical" name="LASPH"> F  </i>
    <i type="logical" name="LMETAGGA"> F  </i>
   </separator>
   <separator name="electronic convergence" >
    <i type="int" name="NELM">    60</i>
    <i type="int" name="NELMDL">    -5</i>
    <i type="int" name="NELMIN">     6</i>
    <i name="ENINI">    600.00000000</i>
    <separator name="electronic convergence detail" >
     <i type="logical" name="LDIAG"> T  </i>
     <i type="logical" name="LSUBROT"> F  </i>
     <i name="WEIMIN">      0.00000000</i>
     <i name="EBREAK">      0.00000000</i>
     <i name="DEPER">      0.30000000</i>
     <i type="int" name="NRMM">     4</i>
     <i name="TIME">      0.40000000</i>
    </separator>
   </separator>
   <separator name="electronic mixer" >
    <i name="AMIX">      0.40000000</i>
    <i name="BMIX">      1.00000000</i>
    <i name="AMIN">      0.10000000</i>
    <i name="AMIX_MAG">      1.60000000</i>
    <i name="BMIX_MAG">      1.00000000</i>
    <separator name="electronic mixer details" >
     <i type="int" name="IMIX">     4</i>
     <i type="logical" name="MIXFIRST"> F  </i>
     <i type="int" name="MAXMIX">   -45</i>
     <i name="WC">    100.00000000</i>
     <i type="int" name="INIMIX">     1</i>
     <i type="int" name="MIXPRE">     1</i>
     <i type="int" name="MREMOVE">     5</i>
    </separator>
   </separator>
   <separator name="electronic dipolcorrection" >
    <i type="logical" name="LDIPOL"> F  </i>
    <i type="logical" name="LMONO"> F  </i>
    <i type="int" name="IDIPOL">     0</i>
    <i name="EPSILON">      1.00000000</i>
    <v name="DIPOL">   -100.00000000   -100.00000000   -100.00000000</v>
    <i name="EFIELD">      0.00000000</i>
   </separator>
  </separator>
  <separator name="grids" >
   <i type="int" name="NGX">    48</i>
   <i type="int" name="NGY">    48</i>
   <i type="int" name="NGZ">   120</i>
   <i type="int" name="NGXF">    96</i>
   <i type="int" name="NGYF">    96</i>
   <i type="int" name="NGZF">   240</i>
   <i type="logical" name="ADDGRID"> F  </i>
  </separator>
  <separator name="ionic" >
   <i type="int" name="NSW">     0</i>
   <i type="int" name="IBRION">    -1</i>
   <i type="int" name="MDALGO">     0</i>
   <i type="int" name="ISIF">     2</i>
   <i name="PSTRESS">      0.00000000</i>
   <i name="EDIFFG">     -0.00000100</i>
   <i type="int" name="NFREE">     0</i>
   <i name="POTIM">      0.50000000</i>
   <i name="SMASS">     -3.00000000</i>
   <i name="SCALEE">      1.00000000</i>
  </separator>
  <separator name="ionic md" >
   <i name="TEBEG">      0.00010000</i>
   <i name="TEEND">      0.00010000</i>
   <i type="int" name="NBLOCK">     1</i>
   <i type="int" name="KBLOCK">     1</i>
   <i type="int" name="NPACO">   256</i>
   <i name="APACO">     10.00000000</i>
  </separator>
  <separator name="symmetry" >
   <i type="int" name="ISYM">     2</i>
   <i name="SYMPREC">      0.00001000</i>
  </separator>
  <separator name="dos" >
   <i type="int" name="LORBIT">     0</i>
   <v name="RWIGS">     -1.00000000</v>
   <i type="int" name="NEDOS">   301</i>
   <i name="EMIN">     10.00000000</i>
   <i name="EMAX">    -10.00000000</i>
   <i name="EFERMI">      0.00000000</i>
  </separator>
  <separator name="writing" >
   <i type="int" name="NWRITE">     2</i>
   <i type="logical" name="LWAVE"> F  </i>
   <i type="logical" name="LDOWNSAMPLE"> F  </i>
   <i type="logical" name="LCHARG"> F  </i>
   <i type="logical" name="LPARD"> F  </i>
   <i type="logical" name="LVTOT"> F  </i>
   <i type="logical" name="LVHAR"> F  </i>
   <i type="logical" name="LELF"> F  </i>
   <i type="logical" name="LOPTICS"> F  </i>
   <v name="STM">      0.00000000      0.00000000      0.00000000      0.00000000      0.00000000      0.00000000      0.00000000</v>
  </separator>
  <separator name="performance" >
   <i type="int" name="NPAR">     2</i>
   <i type="int" name="NSIM">     4</i>
   <i type="int" name="NBLK">    -1</i>
   <i type="logical" name="LPLANE"> T  </i>
   <i type="logical" name="LSCALAPACK"> T  </i>
   <i type="logical" name="LSCAAWARE"> F  </i>
   <i type="logical" name="LSCALU"> F  </i>
   <i type="logical" name="LASYNC"> F  </i>
   <i type="logical" name="LORBITALREAL"> F  </i>
  </separator>
  <separator name="miscellaneous" >
   <i type="int" name="IDIOT">     3</i>
   <i type="int" name="PHON_NSTRUCT">    -1</i>
   <i type="logical" name="LMUSIC"> F  </i>
   <v name="POMASS">     12.01100000</v>
   <v name="DARWINR">      0.00000000</v>
   <v name="DARWINV">      1.00000000</v>
   <i type="logical" name="LCORR"> T  </i>
  </separator>
  <i type="logical" name="GGA_COMPAT"> T  </i>
  <i type="logical" name="LBERRY"> F  </i>
  <i type="int" name="ICORELEVEL">     0</i>
  <i type="logical" name="LDAU"> F  </i>
  <i type="int" name="I_CONSTRAINED_M">     0</i>
  <separator name="electronic exchange-correlation" >
   <i type="string" name="GGA">--</i>
   <i type="int" name="VOSKOWN">     0</i>
   <i type="logical" name="LHFCALC"> F  </i>
   <i type="string" name="PRECFOCK"></i>
   <i type="logical" name="LSYMGRAD"> F  </i>
   <i type="logical" name="LHFONE"> F  </i>
   <i type="logical" name="LRHFCALC"> F  </i>
   <i type="logical" name="LTHOMAS"> F  </i>
   <i type="logical" name="LMODELHF"> F  </i>
   <i type="logical" name="LFOCKACE"> F  </i>
   <i name="ENCUT4O">     -1.00000000</i>
   <i type="int" name="EXXOEP">     0</i>
   <i type="int" name="FOURORBIT">     0</i>
   <i name="AEXX">      0.00000000</i>
   <i name="HFALPHA">      0.00000000</i>
   <i name="MCALPHA">      0.00000000</i>
   <i name="ALDAX">      1.00000000</i>
   <i name="AGGAX">      1.00000000</i>
   <i name="ALDAC">      1.00000000</i>
   <i name="AGGAC">      1.00000000</i>
   <i type="int" name="NKREDX">     1</i>
   <i type="int" name="NKREDY">     1</i>
   <i type="int" name="NKREDZ">     1</i>
   <i type="logical" name="SHIFTRED"> F  </i>
   <i type="logical" name="ODDONLY"> F  </i>
   <i type="logical" name="EVENONLY"> F  </i>
   <i type="int" name="LMAXFOCK">     0</i>
   <i type="int" name="NMAXFOCKAE">     0</i>
   <i type="logical" name="LFOCKAEDFT"> F  </i>
   <i name="HFSCREEN">      0.00000000</i>
   <i name="HFSCREENC">      0.00000000</i>
   <i type="int" name="NBANDSGWLOW">     0</i>
  </separator>
  <separator name="vdW DFT" >
   <i type="logical" name="LUSE_VDW"> F  </i>
   <i type="int" name="IVDW_NL">     1</i>
   <i type="logical" name="LSPIN_VDW"> F  </i>
   <i name="Zab_VDW">     -0.84910000</i>
   <i name="PARAM1">      0.12340000</i>
   <i name="PARAM2">      1.00000000</i>
   <i name="PARAM3">      0.00000000</i>
  </separator>
  <separator name="model GW" >
   <i type="int" name="MODEL_GW">     0</i>
   <i name="MODEL_EPS0">     31.63027863</i>
   <i name="MODEL_ALPHA">      1.00000000</i>
  </separator>
  <separator name="linear response parameters" >
   <i type="logical" name="LEPSILON"> F  </i>
   <i type="logical" name="LRPA"> F  </i>
   <i type="logical" name="LNABLA"> F  </i>
   <i type="logical" name="LVEL"> F  </i>
   <i name="CSHIFT">      0.10000000</i>
   <i name="OMEGAMAX">     -1.00000000</i>
   <i name="DEG_THRESHOLD">      0.00200000</i>
   <i name="RTIME">     -0.10000000</i>
   <i name="WPLASMAI">      0.00000000</i>
   <v name="DFIELD">      0.00000000      0.00000000      0.00000000</v>
   <v name="WPLASMA">      0.00000000      0.00000000      0.00000000      0.00000000      0.00000000      0.00000000      0.00000000      0.00000000      0.00000000</v>
  </separator>
  <separator name="orbital magnetization" >
   <i type="logical" name="NUCIND"> F  </i>
   <v name="MAGPOS">      0.00000000      0.00000000      0.00000000</v>
   <i type="logical" name="LNICSALL"> T  </i>
   <i type="logical" name="ORBITALMAG"> F  </i>
   <i type="logical" name="LMAGBLOCH"> F  </i>
   <i type="logical" name="LCHIMAG"> F  </i>
   <i type="logical" name="LGAUGE"> T  </i>
   <i type="int" name="MAGATOM">     0</i>
   <v name="MAGDIPOL">      0.00000000      0.00000000      0.00000000</v>
   <v name="AVECCONST">      0.00000000      0.00000000      0.00000000</v>
  </separator>
  <separator name="response functions" >
   <i type="logical" name="LALL_IN_ONE"> F  </i>
   <i type="int" name="IALL_IN_ONE">    -1</i>
   <i type="int" name="NBANDS_WAVE">    -1</i>
   <i type="logical" name="LFINITE_TEMPERATURE"> F  </i>
   <i type="logical" name="LADDER"> F  </i>
   <i type="logical" name="LRPAFORCE"> F  </i>
   <i type="logical" name="LFXC"> F  </i>
   <i type="logical" name="LHARTREE"> T  </i>
   <i type="int" name="IBSE">     0</i>
   <v type="int" name="KPOINT">    -1     0     0     0</v>
   <i type="logical" name="LTCTC"> F  </i>
   <i type="logical" name="LTCTE"> F  </i>
   <i type="logical" name="LTETE"> F  </i>
   <i type="logical" name="LTRIPLET"> F  </i>
   <i type="logical" name="LFXCEPS"> F  </i>
   <i type="logical" name="LFXHEG"> F  </i>
   <i type="int" name="NATURALO">     2</i>
   <i type="logical" name="LHOLEGF"> F  </i>
   <i type="logical" name="L2ORDER"> F  </i>
   <i type="logical" name="LDMP1"> F  </i>
   <i type="logical" name="LMP2LT"> F  </i>
   <i type="logical" name="LSMP2LT"> F  </i>
   <i type="logical" name="LGWLF"> F  </i>
   <i name="ENCUTGW">     -1.60000002</i>
   <i name="ENCUTGWSOFT">     -1.60000002</i>
   <i name="ENCUTLF">     -1.00000000</i>
   <i type="logical" name="LESF_SPLINES"> F  </i>
   <i type="int" name="LMAXMP2">    -1</i>
   <i name="SCISSOR">      0.00000000</i>
   <i type="int" name="NOMEGA">     0</i>
   <i type="int" name="NOMEGAR">     0</i>
   <i type="int" name="NBANDSGW">    -1</i>
   <i type="int" name="NBANDSO">    -1</i>
   <i type="int" name="NBANDSV">    -1</i>
   <i type="int" name="NELMGW">     1</i>
   <i type="int" name="NELMHF">     1</i>
   <i type="int" name="DIM">     3</i>
   <i type="int" name="IESPILON">     4</i>
   <i type="int" name="ANTIRES">     0</i>
   <i name="OMEGAMAX">    -30.00000000</i>
   <i name="OMEGAMIN">    -30.00000000</i>
   <i name="OMEGATL">   -200.00000000</i>
   <i type="int" name="OMEGAGRID">     0</i>
   <i name="CSHIFT">     -0.10000000</i>
   <i type="logical" name="LSELFENERGY"> F  </i>
   <i type="logical" name="LSPECTRAL"> F  </i>
   <i type="logical" name="LSPECTRALGW"> F  </i>
   <i type="logical" name="LSINGLES"> F  </i>
   <i type="logical" name="LFERMIGW"> F  </i>
   <i type="logical" name="ODDONLYGW"> F  </i>
   <i type="logical" name="EVENONLYGW"> F  </i>
   <i type="int" name="NKREDLFX">     1</i>
   <i type="int" name="NKREDLFY">     1</i>
   <i type="int" name="NKREDLFZ">     1</i>
   <i type="int" name="MAXMEM">  2800</i>
   <i type="int" name="TELESCOPE">     0</i>
   <i type="int" name="NTAUPAR">    -1</i>
   <i type="int" name="NOMEGAPAR">    -1</i>
   <i name="DAMP_NEWTON">      0.80000001</i>
   <i name="LAMBDA">      1.00000000</i>
  </separator>
  <separator name="External order field" >
   <i name="OFIELD_KAPPA">      0.00000000</i>
   <v name="OFIELD_K">      0.00000000      0.00000000      0.00000000</v>
   <i name="OFIELD_Q6_NEAR">      0.00000000</i>
   <i name="OFIELD_Q6_FAR">      0.00000000</i>
   <i name="OFIELD_A">      0.00000000</i>
  </separator>
  <separator name="optional k-points parameters" >
   <i type="int" name="KPOINTS_OPT_MODE">     1</i>
   <i type="logical" name="LKPOINTS_OPT"> F  </i>
  </separator>
 </parameters>
 <atominfo>
  <atoms>      18 </atoms>
  <types>       1 </types>
  <array name="atoms" >
   <dimension dim="1">ion</dimension>
   <field type="string">element</field>
   <field type="int">atomtype</field>
   <set>
    <rc><c>C </c><c>   1</c></rc>
    <rc><c>C </c><c>   1</c></rc>
    <rc><c>C </c><c>   1</c></rc>
    <rc><c>C </c><c>   1</c></rc>
    <rc><c>C </c><c>   1</c></rc>
    <rc><c>C </c><c>   1</c></rc>
    <rc><c>C </c><c>   1</c></rc>
    <rc><c>C </c><c>   1</c></rc>
    <rc><c>C </c><c>   1</c></rc>
    <rc><c>C </c><c>   1</c></rc>
    <rc><c>C </c><c>   1</c></rc>
    <rc><c>C </c><c>   1</c></rc>
    <rc><c>C </c><c>   1</c></rc>
    <rc><c>C </c><c>   1</c></rc>
    <rc><c>C </c><c>   1</c></rc>
    <rc><c>C </c><c>   1</c></rc>
    <rc><c>C </c><c>   1</c></rc>
    <rc><c>C </c><c>   1</c></rc>
   </set>
  </array>
  <array name="atomtypes" >
   <dimension dim="1">type</dimension>
   <field type="int">atomspertype</field>
   <field type="string">element</field>
   <field>mass</field>
   <field>valence</field>
   <field type="string">pseudopotential</field>
   <set>
    <rc><c>  18</c><c>C </c><c>     12.01100000</c><c>      4.00000000</c><c>  PAW_PBE C 08Apr2002                   </c></rc>
   </set>
  </array>
 </atominfo>
 <structure name="initialpos" >
  <crystal>
   <varray name="basis" >
    <v>       7.40170591       0.00000000       0.00000000 </v>
    <v>      -3.70085295       6.41006527       0.00000000 </v>
    <v>       0.00000000       0.00000000      20.00000000 </v>
   </varray>
   <i name="volume">    948.90835877 </i>
   <varray name="rec_basis" >
    <v>       0.13510399       0.07800233       0.00000000 </v>
    <v>       0.00000000       0.15600465       0.00000000 </v>
    <v>       0.00000000       0.00000000       0.05000000 </v>
   </varray>
  </crystal>
  <varray name="positions" >
   <v>       0.99921998       0.99843995       0.50000000 </v>
   <v>       0.33333333       0.00000000       0.50000000 </v>
   <v>       0.66666667       0.00000000       0.50000000 </v>
   <v>       0.00000000       0.33333333       0.50000000 </v>
   <v>       0.33333333       0.33333333       0.50000000 </v>
   <v>       0.66666667       0.33333333       0.50000000 </v>
   <v>       0.00000000       0.66666667       0.50000000 </v>
   <v>       0.33333333       0.66666667       0.50000000 </v>
   <v>       0.66666667       0.66666667       0.50000000 </v>
   <v>       0.22222222       0.11111111       0.50050000 </v>
   <v>       0.55555556       0.11111111       0.50000000 </v>
   <v>       0.88888889       0.11111111       0.50000000 </v>
   <v>       0.22222222       0.44444444       0.50000000 </v>
   <v>       0.55555556       0.44444444       0.50000000 </v>
   <v>       0.88888889       0.44444444       0.50000000 </v>
   <v>       0.22222222       0.77777778       0.50000000 </v>
   <v>       0.55555556       0.77777778       0.50000000 </v>
   <v>       0.88888889       0.77777778       0.50000000 </v>
  </varray>
 </structure>
 <calculation>
  <scstep>
   <time name="dav">    5.91    6.13</time>
   <time name="total">    6.00    6.23</time>
   <energy>
    <i name="alphaZ">     28.04858418 </i>
    <i name="ewald">  11638.84073858 </i>
    <i name="hartreedc"> -13553.15834034 </i>
    <i name="XCdc">    237.17732038 </i>
    <i name="pawpsdc">   1953.39683484 </i>
    <i name="pawaedc">  -1963.64613940 </i>
    <i name="eentropy">     -0.00835884 </i>
    <i name="bandstr">   -257.77034323 </i>
    <i name="atom">   2648.70517965 </i>
    <i name="e_fr_energy">    731.58547583 </i>
    <i name="e_wo_entrp">    731.59383466 </i>
    <i name="e_0_energy">    731.58965525 </i>
   </energy>
  </scstep>
  <scstep>
   <time name="dav">    7.83    8.14</time>
   <time name="total">    7.83    8.14</time>
   <energy>
    <i name="e_fr_energy">    -23.95463532 </i>
    <i name="e_wo_entrp">    -23.95447316 </i>
    <i name="e_0_energy">    -23.95455424 </i>
   </energy>
  </scstep>
  <scstep>
   <time name="dav">    6.32    5.35</time>
   <time name="total">    6.32    5.35</time>
   <energy>
    <i name="e_fr_energy">   -172.28517166 </i>
    <i name="e_wo_entrp">   -172.28376435 </i>
    <i name="e_0_energy">   -172.28446800 </i>
   </energy>
  </scstep>
  <scstep>
   <time name="dav">    6.22    6.45</time>
   <time name="total">    6.22    6.45</time>
   <energy>
    <i name="e_fr_energy">   -177.34742009 </i>
    <i name="e_wo_entrp">   -177.34525627 </i>
    <i name="e_0_energy">   -177.34633818 </i>
   </energy>
  </scstep>
  <scstep>
   <time name="dav">    7.08    7.35</time>
   <time name="total">    7.33    7.61</time>
   <energy>
    <i name="e_fr_energy">   -177.48503015 </i>
    <i name="e_wo_entrp">   -177.48287614 </i>
    <i name="e_0_energy">   -177.48395314 </i>
   </energy>
  </scstep>
  <scstep>
   <time name="dav">    5.93    6.15</time>
   <time name="total">    6.27    6.51</time>
   <energy>
    <i name="e_fr_energy">   -169.31841023 </i>
    <i name="e_wo_entrp">   -169.31621944 </i>
    <i name="e_0_energy">   -169.31731483 </i>
   </energy>
  </scstep>
  <scstep>
   <time name="dav">    5.88    6.10</time>
   <time name="total">    6.22    6.46</time>
   <energy>
    <i name="e_fr_energy">   -166.15053556 </i>
    <i name="e_wo_entrp">   -166.14832876 </i>
    <i name="e_0_energy">   -166.14943216 </i>
   </energy>
  </scstep>
  <scstep>
   <time name="dav">    6.17    5.23</time>
   <time name="total">    6.52    5.59</time>
   <energy>
    <i name="e_fr_energy">   -166.08751722 </i>
    <i name="e_wo_entrp">   -166.08531706 </i>
    <i name="e_0_energy">   -166.08641714 </i>
   </energy>
  </scstep>
  <scstep>
   <time name="dav">    6.58    6.82</time>
   <time name="total">    6.92    7.18</time>
   <energy>
    <i name="e_fr_energy">   -166.07493805 </i>
    <i name="e_wo_entrp">   -166.07273582 </i>
    <i name="e_0_energy">   -166.07383694 </i>
   </energy>
  </scstep>
  <scstep>
   <time name="dav">    5.73    5.95</time>
   <time name="total">    6.08    6.31</time>
   <energy>
    <i name="e_fr_energy">   -166.05620671 </i>
    <i name="e_wo_entrp">   -166.05400302 </i>
    <i name="e_0_energy">   -166.05510487 </i>
   </energy>
  </scstep>
  <scstep>
   <time name="dav">    5.78    5.99</time>
   <time name="total">    6.12    6.35</time>
   <energy>
    <i name="e_fr_energy">   -166.05990828 </i>
    <i name="e_wo_entrp">   -166.05770578 </i>
    <i name="e_0_energy">   -166.05880703 </i>
   </energy>
  </scstep>
  <scstep>
   <time name="dav">    5.57    5.78</time>
   <time name="total">    5.91    6.14</time>
   <energy>
    <i name="e_fr_energy">   -166.06460511 </i>
    <i name="e_wo_entrp">   -166.06240277 </i>
    <i name="e_0_energy">   -166.06350394 </i>
   </energy>
  </scstep>
  <scstep>
   <time name="dav">    6.11    5.16</time>
   <time name="total">    6.46    5.52</time>
   <energy>
    <i name="e_fr_energy">   -166.06874093 </i>
    <i name="e_wo_entrp">   -166.06653805 </i>
    <i name="e_0_energy">   -166.06763949 </i>
   </energy>
  </scstep>
  <scstep>
   <time name="dav">    5.59    5.80</time>
   <time name="total">    5.94    6.16</time>
   <energy>
    <i name="e_fr_energy">   -166.07252513 </i>
    <i name="e_wo_entrp">   -166.07032223 </i>
    <i name="e_0_energy">   -166.07142368 </i>
   </energy>
  </scstep>
  <scstep>
   <time name="dav">    5.87    6.10</time>
   <time name="total">    6.23    6.47</time>
   <energy>
    <i name="e_fr_energy">   -166.07370641 </i>
    <i name="e_wo_entrp">   -166.07150355 </i>
    <i name="e_0_energy">   -166.07260498 </i>
   </energy>
  </scstep>
  <scstep>
   <time name="dav">    5.98    6.22</time>
   <time name="total">    6.34    6.59</time>
   <energy>
    <i name="e_fr_energy">   -166.07387800 </i>
    <i name="e_wo_entrp">   -166.07167517 </i>
    <i name="e_0_energy">   -166.07277659 </i>
   </energy>
  </scstep>
  <scstep>
   <time name="dav">    5.31    5.52</time>
   <time name="total">    5.66    5.88</time>
   <energy>
    <i name="e_fr_energy">   -166.07408807 </i>
    <i name="e_wo_entrp">   -166.07188532 </i>
    <i name="e_0_energy">   -166.07298669 </i>
   </energy>
  </scstep>
  <scstep>
   <time name="dav">    5.17    4.17</time>
   <time name="total">    5.51    4.52</time>
   <energy>
    <i name="e_fr_energy">   -166.07412815 </i>
    <i name="e_wo_entrp">   -166.07192534 </i>
    <i name="e_0_energy">   -166.07302674 </i>
   </energy>
  </scstep>
  <scstep>
   <time name="dav">    5.11    5.29</time>
   <time name="total">    5.45    5.65</time>
   <energy>
    <i name="e_fr_energy">   -166.07416517 </i>
    <i name="e_wo_entrp">   -166.07196233 </i>
    <i name="e_0_energy">   -166.07306375 </i>
   </energy>
  </scstep>
  <scstep>
   <time name="dav">    4.32    4.47</time>
   <time name="total">    4.66    4.83</time>
   <energy>
    <i name="e_fr_energy">   -166.07418574 </i>
    <i name="e_wo_entrp">   -166.07198294 </i>
    <i name="e_0_energy">   -166.07308434 </i>
   </energy>
  </scstep>
  <scstep>
   <time name="dav">    3.95    4.11</time>
   <time name="total">    4.30    4.47</time>
   <energy>
    <i name="e_fr_energy">   -166.07419429 </i>
    <i name="e_wo_entrp">   -166.07199148 </i>
    <i name="e_0_energy">   -166.07309289 </i>
   </energy>
  </scstep>
  <scstep>
   <time name="dav">    3.96    4.12</time>
   <time name="total">    4.31    4.48</time>
   <energy>
    <i name="e_fr_energy">   -166.07419699 </i>
    <i name="e_wo_entrp">   -166.07199419 </i>
    <i name="e_0_energy">   -166.07309559 </i>
   </energy>
  </scstep>
  <scstep>
   <time name="dav">    4.15    4.32</time>
   <time name="total">    4.23    4.40</time>
   <energy>
    <i name="alphaZ">     28.04858418 </i>
    <i name="ewald">  11638.84073858 </i>
    <i name="hartreedc"> -13861.49375140 </i>
    <i name="XCdc">    247.81379007 </i>
    <i name="pawpsdc">   7452.77971408 </i>
    <i name="pawaedc">  -7465.04305123 </i>
    <i name="eentropy">     -0.00220281 </i>
    <i name="bandstr">   -855.72319838 </i>
    <i name="atom">   2648.70517965 </i>
    <i name="e_fr_energy">   -166.07419726 </i>
    <i name="e_wo_entrp">   -166.07199446 </i>
    <i name="e_0_energy">   -166.07309586 </i>
   </energy>
  </scstep>
  <structure>
   <crystal>
    <varray name="basis" >
     <v>       7.40170591       0.00000000       0.00000000 </v>
     <v>      -3.70085295       6.41006527       0.00000000 </v>
     <v>       0.00000000       0.00000000      20.00000000 </v>
    </varray>
    <i name="volume">    948.90835877 </i>
    <varray name="rec_basis" >
     <v>       0.13510399       0.07800233       0.00000000 </v>
     <v>       0.00000000       0.15600465       0.00000000 </v>
     <v>       0.00000000       0.00000000       0.05000000 </v>
    </varray>
   </crystal>
   <varray name="positions" >
    <v>       0.99921998       0.99843995       0.50000000 </v>
    <v>       0.33333333       0.00000000       0.50000000 </v>
    <v>       0.66666667       0.00000000       0.50000000 </v>
    <v>       0.00000000       0.33333333       0.50000000 </v>
    <v>       0.33333333       0.33333333       0.50000000 </v>
    <v>       0.66666667       0.33333333       0.50000000 </v>
    <v>       0.00000000       0.66666667       0.50000000 </v>
    <v>       0.33333333       0.66666667       0.50000000 </v>
    <v>       0.66666667       0.66666667       0.50000000 </v>
    <v>       0.22222222       0.11111111       0.50050000 </v>
    <v>       0.55555556       0.11111111       0.50000000 </v>
    <v>       0.88888889       0.11111111       0.50000000 </v>
    <v>       0.22222222       0.44444444       0.50000000 </v>
    <v>       0.55555556       0.44444444       0.50000000 </v>
    <v>       0.88888889       0.44444444       0.50000000 </v>
    <v>       0.22222222       0.77777778       0.50000000 </v>
    <v>       0.55555556       0.77777778       0.50000000 </v>
    <v>       0.88888889       0.77777778       0.50000000 </v>
   </varray>
  </structure>
  <varray name="forces" >
   <v>       0.00052678       0.60544562       0.06224997 </v>
   <v>      -0.01430827       0.02469263       0.06171718 </v>
   <v>       0.01373979       0.02435462      -0.00911995 </v>
   <v>       0.01858356      -0.03149926       0.00318129 </v>
   <v>      -0.01859991      -0.03215608       0.06142995 </v>
   <v>       0.00001410      -0.03067957       0.00324173 </v>
   <v>       0.04630000      -0.03204421       0.00335768 </v>
   <v>       0.00001058      -0.03069296      -0.00918189 </v>
   <v>      -0.04631423      -0.03201718      -0.00934218 </v>
   <v>      -0.05258241      -0.13864490      -0.14195450 </v>
   <v>       0.00001528       0.02524608      -0.00499709 </v>
   <v>       0.05259787      -0.13869409      -0.00492704 </v>
   <v>       0.00002644       0.03185163      -0.00491441 </v>
   <v>      -0.01041696       0.00731429      -0.00491954 </v>
   <v>       0.01039820       0.00728655       0.00202542 </v>
   <v>      -0.02319138      -0.00841269      -0.00492628 </v>
   <v>       0.02323152      -0.00841934       0.00202859 </v>
   <v>      -0.00003094      -0.24293114      -0.00494892 </v>
  </varray>
  <varray name="stress" >
   <v>      -0.22122449       0.00005830      -0.00088012 </v>
   <v>       0.00005830      -0.08305916      -0.00234233 </v>
   <v>      -0.00088013      -0.00234233      -0.56643659 </v>
  </varray>
  <energy>
   <i name="e_fr_energy">   -166.07419726 </i>
   <i name="e_wo_entrp">   -166.07199446 </i>
   <i name="e_0_energy">   -166.07309586 </i>
  </energy>
  <time name="totalsc">  141.90  142.56</time>
  <eigenvalues>
   <array>
    <dimension dim="1">band</dimension>
    <dimension dim="2">kpoint</dimension>
    <dimension dim="3">spin</dimension>
    <field>eigene</field>
    <field>occ</field>
    <set>
     <set comment="spin 1">
      <set comment="kpoint 1">
       <r>  -22.2559    1.0000 </r>
       <r>  -19.6960    1.0000 </r>
       <r>  -19.6748    1.0000 </r>
       <r>  -19.6743    1.0000 </r>
       <r>  -19.6718    1.0000 </r>
       <r>  -19.6690    1.0000 </r>
       <r>  -19.6544    1.0000 </r>
       <r>  -15.3579    1.0000 </r>
       <r>  -15.3407    1.0000 </r>
       <r>  -15.3330    1.0000 </r>
       <r>  -15.3315    1.0000 </r>
       <r>  -13.2920    1.0000 </r>
       <r>  -13.2873    1.0000 </r>
       <r>  -12.3992    1.0000 </r>
       <r>  -12.3809    1.0000 </r>
       <r>  -12.3756    1.0000 </r>
       <r>  -12.3738    1.0000 </r>
       <r>  -12.3633    1.0000 </r>
       <r>  -12.3549    1.0000 </r>
       <r>  -10.3599    1.0000 </r>
       <r>   -8.5503    1.0000 </r>
       <r>   -8.5277    1.0000 </r>
       <r>   -8.5236    1.0000 </r>
       <r>   -8.5230    1.0000 </r>
       <r>   -8.5202    1.0000 </r>
       <r>   -8.4962    1.0000 </r>
       <r>   -7.3899    1.0000 </r>
       <r>   -7.3717    1.0000 </r>
       <r>   -7.3713    1.0000 </r>
       <r>   -7.3695    1.0000 </r>
       <r>   -7.3684    1.0000 </r>
       <r>   -7.3544    1.0000 </r>
       <r>   -5.8007    1.0000 </r>
       <r>   -5.7679    1.0000 </r>
       <r>   -2.7714    0.6767 </r>
       <r>   -2.7552    0.5002 </r>
       <r>   -2.7528    0.4732 </r>
       <r>   -2.7416    0.3499 </r>
       <r>    0.5196    0.0000 </r>
       <r>    1.3121    0.0000 </r>
       <r>    1.6360    0.0000 </r>
       <r>    2.1193    0.0000 </r>
       <r>    2.1434    0.0000 </r>
       <r>    2.1449    0.0000 </r>
       <r>    2.1472    0.0000 </r>
       <r>    2.1658    0.0000 </r>
      </set>
      <set comment="kpoint 2">
       <r>  -22.2023    1.0000 </r>
       <r>  -20.3490    1.0000 </r>
       <r>  -19.9912    1.0000 </r>
       <r>  -19.9775    1.0000 </r>
       <r>  -19.2694    1.0000 </r>
       <r>  -19.2556    1.0000 </r>
       <r>  -18.9059    1.0000 </r>
       <r>  -16.0020    1.0000 </r>
       <r>  -15.9883    1.0000 </r>
       <r>  -14.9202    1.0000 </r>
       <r>  -14.9071    1.0000 </r>
       <r>  -13.5951    1.0000 </r>
       <r>  -12.9793    1.0000 </r>
       <r>  -12.9668    1.0000 </r>
       <r>  -12.9583    1.0000 </r>
       <r>  -12.9503    1.0000 </r>
       <r>  -11.7435    1.0000 </r>
       <r>  -11.7307    1.0000 </r>
       <r>  -11.1139    1.0000 </r>
       <r>  -10.2959    1.0000 </r>
       <r>   -8.8707    1.0000 </r>
       <r>   -8.8561    1.0000 </r>
       <r>   -8.8304    1.0000 </r>
       <r>   -8.5142    1.0000 </r>
       <r>   -8.4994    1.0000 </r>
       <r>   -8.1360    1.0000 </r>
       <r>   -8.1276    1.0000 </r>
       <r>   -7.7189    1.0000 </r>
       <r>   -7.7069    1.0000 </r>
       <r>   -6.9282    1.0000 </r>
       <r>   -6.9164    1.0000 </r>
       <r>   -6.5585    1.0000 </r>
       <r>   -5.9987    1.0000 </r>
       <r>   -5.9058    1.0000 </r>
       <r>   -3.5327    1.0000 </r>
       <r>   -3.5203    1.0000 </r>
       <r>   -2.0118    0.0000 </r>
       <r>   -1.9978    0.0000 </r>
       <r>    0.5921    0.0000 </r>
       <r>    0.8787    0.0000 </r>
       <r>    1.3857    0.0000 </r>
       <r>    1.4637    0.0000 </r>
       <r>    1.4813    0.0000 </r>
       <r>    1.7105    0.0000 </r>
       <r>    2.6299    0.0000 </r>
       <r>    2.7505    0.0000 </r>
      </set>
      <set comment="kpoint 3">
       <r>  -22.2024    1.0000 </r>
       <r>  -20.3493    1.0000 </r>
       <r>  -19.9855    1.0000 </r>
       <r>  -19.9828    1.0000 </r>
       <r>  -19.2638    1.0000 </r>
       <r>  -19.2609    1.0000 </r>
       <r>  -18.9062    1.0000 </r>
       <r>  -15.9997    1.0000 </r>
       <r>  -15.9916    1.0000 </r>
       <r>  -14.9166    1.0000 </r>
       <r>  -14.9083    1.0000 </r>
       <r>  -13.6029    1.0000 </r>
       <r>  -12.9755    1.0000 </r>
       <r>  -12.9689    1.0000 </r>
       <r>  -12.9534    1.0000 </r>
       <r>  -12.9512    1.0000 </r>
       <r>  -11.7354    1.0000 </r>
       <r>  -11.7269    1.0000 </r>
       <r>  -11.1245    1.0000 </r>
       <r>  -10.2959    1.0000 </r>
       <r>   -8.8743    1.0000 </r>
       <r>   -8.8609    1.0000 </r>
       <r>   -8.8209    1.0000 </r>
       <r>   -8.5217    1.0000 </r>
       <r>   -8.5069    1.0000 </r>
       <r>   -8.1258    1.0000 </r>
       <r>   -8.1224    1.0000 </r>
       <r>   -7.7163    1.0000 </r>
       <r>   -7.7126    1.0000 </r>
       <r>   -6.9255    1.0000 </r>
       <r>   -6.9219    1.0000 </r>
       <r>   -6.5538    1.0000 </r>
       <r>   -6.0202    1.0000 </r>
       <r>   -5.8841    1.0000 </r>
       <r>   -3.5285    1.0000 </r>
       <r>   -3.5254    1.0000 </r>
       <r>   -2.0051    0.0000 </r>
       <r>   -2.0034    0.0000 </r>
       <r>    0.5921    0.0000 </r>
       <r>    0.8672    0.0000 </r>
       <r>    1.3857    0.0000 </r>
       <r>    1.4750    0.0000 </r>
       <r>    1.4774    0.0000 </r>
       <r>    1.7105    0.0000 </r>
       <r>    2.6299    0.0000 </r>
       <r>    2.7628    0.0000 </r>
      </set>
      <set comment="kpoint 4">
       <r>  -22.2023    1.0000 </r>
       <r>  -20.3490    1.0000 </r>
       <r>  -19.9912    1.0000 </r>
       <r>  -19.9774    1.0000 </r>
       <r>  -19.2694    1.0000 </r>
       <r>  -19.2556    1.0000 </r>
       <r>  -18.9059    1.0000 </r>
       <r>  -16.0020    1.0000 </r>
       <r>  -15.9883    1.0000 </r>
       <r>  -14.9202    1.0000 </r>
       <r>  -14.9071    1.0000 </r>
       <r>  -13.5951    1.0000 </r>
       <r>  -12.9792    1.0000 </r>
       <r>  -12.9668    1.0000 </r>
       <r>  -12.9584    1.0000 </r>
       <r>  -12.9503    1.0000 </r>
       <r>  -11.7435    1.0000 </r>
       <r>  -11.7307    1.0000 </r>
       <r>  -11.1139    1.0000 </r>
       <r>  -10.2959    1.0000 </r>
       <r>   -8.8707    1.0000 </r>
       <r>   -8.8562    1.0000 </r>
       <r>   -8.8304    1.0000 </r>
       <r>   -8.5142    1.0000 </r>
       <r>   -8.4994    1.0000 </r>
       <r>   -8.1360    1.0000 </r>
       <r>   -8.1276    1.0000 </r>
       <r>   -7.7188    1.0000 </r>
       <r>   -7.7069    1.0000 </r>
       <r>   -6.9282    1.0000 </r>
       <r>   -6.9164    1.0000 </r>
       <r>   -6.5585    1.0000 </r>
       <r>   -5.9987    1.0000 </r>
       <r>   -5.9058    1.0000 </r>
       <r>   -3.5327    1.0000 </r>
       <r>   -3.5203    1.0000 </r>
       <r>   -2.0118    0.0000 </r>
       <r>   -1.9977    0.0000 </r>
       <r>    0.5921    0.0000 </r>
       <r>    0.8787    0.0000 </r>
       <r>    1.3857    0.0000 </r>
       <r>    1.4636    0.0000 </r>
       <r>    1.4814    0.0000 </r>
       <r>    1.7105    0.0000 </r>
       <r>    2.6299    0.0000 </r>
       <r>    2.7504    0.0000 </r>
      </set>
      <set comment="kpoint 5">
       <r>  -22.0418    1.0000 </r>
       <r>  -20.9266    1.0000 </r>
       <r>  -20.1996    1.0000 </r>
       <r>  -20.1860    1.0000 </r>
       <r>  -18.7623    1.0000 </r>
       <r>  -18.7483    1.0000 </r>
       <r>  -18.0630    1.0000 </r>
       <r>  -16.7519    1.0000 </r>
       <r>  -16.7380    1.0000 </r>
       <r>  -14.7509    1.0000 </r>
       <r>  -14.6307    1.0000 </r>
       <r>  -14.6190    1.0000 </r>
       <r>  -13.5061    1.0000 </r>
       <r>  -13.4947    1.0000 </r>
       <r>  -12.1901    1.0000 </r>
       <r>  -12.1764    1.0000 </r>
       <r>  -11.1074    1.0000 </r>
       <r>  -11.0943    1.0000 </r>
       <r>  -10.1047    1.0000 </r>
       <r>   -9.8560    1.0000 </r>
       <r>   -9.5012    1.0000 </r>
       <r>   -9.4863    1.0000 </r>
       <r>   -9.0418    1.0000 </r>
       <r>   -8.7927    1.0000 </r>
       <r>   -8.7640    1.0000 </r>
       <r>   -8.7504    1.0000 </r>
       <r>   -7.9502    1.0000 </r>
       <r>   -7.9382    1.0000 </r>
       <r>   -7.6762    1.0000 </r>
       <r>   -6.6157    1.0000 </r>
       <r>   -6.3830    1.0000 </r>
       <r>   -6.3713    1.0000 </r>
       <r>   -6.2233    1.0000 </r>
       <r>   -5.7674    1.0000 </r>
       <r>   -4.3046    1.0000 </r>
       <r>   -4.2928    1.0000 </r>
       <r>   -1.2908    0.0000 </r>
       <r>   -1.2756    0.0000 </r>
       <r>   -0.2331    0.0000 </r>
       <r>    0.7773    0.0000 </r>
       <r>    0.7941    0.0000 </r>
       <r>    0.8123    0.0000 </r>
       <r>    1.6064    0.0000 </r>
       <r>    1.9339    0.0000 </r>
       <r>    2.3341    0.0000 </r>
       <r>    2.8512    0.0000 </r>
      </set>
      <set comment="kpoint 6">
       <r>  -22.0419    1.0000 </r>
       <r>  -20.9268    1.0000 </r>
       <r>  -20.1937    1.0000 </r>
       <r>  -20.1913    1.0000 </r>
       <r>  -18.7572    1.0000 </r>
       <r>  -18.7536    1.0000 </r>
       <r>  -18.0627    1.0000 </r>
       <r>  -16.7486    1.0000 </r>
       <r>  -16.7423    1.0000 </r>
       <r>  -14.7591    1.0000 </r>
       <r>  -14.6258    1.0000 </r>
       <r>  -14.6196    1.0000 </r>
       <r>  -13.5004    1.0000 </r>
       <r>  -13.4941    1.0000 </r>
       <r>  -12.1858    1.0000 </r>
       <r>  -12.1841    1.0000 </r>
       <r>  -11.0971    1.0000 </r>
       <r>  -11.0877    1.0000 </r>
       <r>  -10.1046    1.0000 </r>
       <r>   -9.8687    1.0000 </r>
       <r>   -9.5035    1.0000 </r>
       <r>   -9.4925    1.0000 </r>
       <r>   -9.0307    1.0000 </r>
       <r>   -8.7919    1.0000 </r>
       <r>   -8.7745    1.0000 </r>
       <r>   -8.7599    1.0000 </r>
       <r>   -7.9477    1.0000 </r>
       <r>   -7.9439    1.0000 </r>
       <r>   -7.6610    1.0000 </r>
       <r>   -6.6363    1.0000 </r>
       <r>   -6.3804    1.0000 </r>
       <r>   -6.3766    1.0000 </r>
       <r>   -6.2018    1.0000 </r>
       <r>   -5.7598    1.0000 </r>
       <r>   -4.3010    1.0000 </r>
       <r>   -4.2978    1.0000 </r>
       <r>   -1.2827    0.0000 </r>
       <r>   -1.2815    0.0000 </r>
       <r>   -0.2477    0.0000 </r>
       <r>    0.7871    0.0000 </r>
       <r>    0.7904    0.0000 </r>
       <r>    0.8123    0.0000 </r>
       <r>    1.6064    0.0000 </r>
       <r>    1.9339    0.0000 </r>
       <r>    2.3341    0.0000 </r>
       <r>    2.8512    0.0000 </r>
      </set>
      <set comment="kpoint 7">
       <r>  -22.0418    1.0000 </r>
       <r>  -20.9266    1.0000 </r>
       <r>  -20.1996    1.0000 </r>
       <r>  -20.1860    1.0000 </r>
       <r>  -18.7623    1.0000 </r>
       <r>  -18.7483    1.0000 </r>
       <r>  -18.0630    1.0000 </r>
       <r>  -16.7520    1.0000 </r>
       <r>  -16.7380    1.0000 </r>
       <r>  -14.7509    1.0000 </r>
       <r>  -14.6307    1.0000 </r>
       <r>  -14.6190    1.0000 </r>
       <r>  -13.5061    1.0000 </r>
       <r>  -13.4947    1.0000 </r>
       <r>  -12.1901    1.0000 </r>
       <r>  -12.1764    1.0000 </r>
       <r>  -11.1075    1.0000 </r>
       <r>  -11.0942    1.0000 </r>
       <r>  -10.1047    1.0000 </r>
       <r>   -9.8560    1.0000 </r>
       <r>   -9.5012    1.0000 </r>
       <r>   -9.4863    1.0000 </r>
       <r>   -9.0418    1.0000 </r>
       <r>   -8.7929    1.0000 </r>
       <r>   -8.7636    1.0000 </r>
       <r>   -8.7508    1.0000 </r>
       <r>   -7.9503    1.0000 </r>
       <r>   -7.9382    1.0000 </r>
       <r>   -7.6762    1.0000 </r>
       <r>   -6.6157    1.0000 </r>
       <r>   -6.3831    1.0000 </r>
       <r>   -6.3712    1.0000 </r>
       <r>   -6.2233    1.0000 </r>
       <r>   -5.7674    1.0000 </r>
       <r>   -4.3046    1.0000 </r>
       <r>   -4.2928    1.0000 </r>
       <r>   -1.2908    0.0000 </r>
       <r>   -1.2756    0.0000 </r>
       <r>   -0.2330    0.0000 </r>
       <r>    0.7769    0.0000 </r>
       <r>    0.7949    0.0000 </r>
       <r>    0.8120    0.0000 </r>
       <r>    1.6064    0.0000 </r>
       <r>    1.9339    0.0000 </r>
       <r>    2.3341    0.0000 </r>
       <r>    2.8512    0.0000 </r>
      </set>
      <set comment="kpoint 8">
       <r>  -21.7750    1.0000 </r>
       <r>  -21.4027    1.0000 </r>
       <r>  -20.3042    1.0000 </r>
       <r>  -20.2906    1.0000 </r>
       <r>  -18.1652    1.0000 </r>
       <r>  -18.1511    1.0000 </r>
       <r>  -17.4883    1.0000 </r>
       <r>  -17.4742    1.0000 </r>
       <r>  -17.2299    1.0000 </r>
       <r>  -15.7420    1.0000 </r>
       <r>  -14.3289    1.0000 </r>
       <r>  -14.3173    1.0000 </r>
       <r>  -13.9574    1.0000 </r>
       <r>  -13.9463    1.0000 </r>
       <r>  -11.2652    1.0000 </r>
       <r>  -11.2505    1.0000 </r>
       <r>  -10.6082    1.0000 </r>
       <r>  -10.5957    1.0000 </r>
       <r>  -10.3338    1.0000 </r>
       <r>  -10.3191    1.0000 </r>
       <r>   -9.7878    1.0000 </r>
       <r>   -9.3486    1.0000 </r>
       <r>   -9.1486    1.0000 </r>
       <r>   -9.0895    1.0000 </r>
       <r>   -9.0799    1.0000 </r>
       <r>   -8.6409    1.0000 </r>
       <r>   -8.0666    1.0000 </r>
       <r>   -8.0546    1.0000 </r>
       <r>   -7.5326    1.0000 </r>
       <r>   -7.1740    1.0000 </r>
       <r>   -6.6705    1.0000 </r>
       <r>   -5.7525    1.0000 </r>
       <r>   -5.7408    1.0000 </r>
       <r>   -5.2019    1.0000 </r>
       <r>   -5.0524    1.0000 </r>
       <r>   -5.0410    1.0000 </r>
       <r>   -0.9641    0.0000 </r>
       <r>   -0.5935    0.0000 </r>
       <r>   -0.5773    0.0000 </r>
       <r>    0.0928    0.0000 </r>
       <r>    0.1095    0.0000 </r>
       <r>    1.1735    0.0000 </r>
       <r>    1.6817    0.0000 </r>
       <r>    1.9738    0.0000 </r>
       <r>    2.3063    0.0000 </r>
       <r>    2.4867    0.0000 </r>
      </set>
      <set comment="kpoint 9">
       <r>  -21.7751    1.0000 </r>
       <r>  -21.4027    1.0000 </r>
       <r>  -20.2982    1.0000 </r>
       <r>  -20.2959    1.0000 </r>
       <r>  -18.1607    1.0000 </r>
       <r>  -18.1562    1.0000 </r>
       <r>  -17.4841    1.0000 </r>
       <r>  -17.4790    1.0000 </r>
       <r>  -17.2262    1.0000 </r>
       <r>  -15.7529    1.0000 </r>
       <r>  -14.3237    1.0000 </r>
       <r>  -14.3175    1.0000 </r>
       <r>  -13.9520    1.0000 </r>
       <r>  -13.9459    1.0000 </r>
       <r>  -11.2630    1.0000 </r>
       <r>  -11.2578    1.0000 </r>
       <r>  -10.5935    1.0000 </r>
       <r>  -10.5832    1.0000 </r>
       <r>  -10.3343    1.0000 </r>
       <r>  -10.3258    1.0000 </r>
       <r>   -9.7875    1.0000 </r>
       <r>   -9.3479    1.0000 </r>
       <r>   -9.1371    1.0000 </r>
       <r>   -9.1074    1.0000 </r>
       <r>   -9.0931    1.0000 </r>
       <r>   -8.6557    1.0000 </r>
       <r>   -8.0640    1.0000 </r>
       <r>   -8.0604    1.0000 </r>
       <r>   -7.5500    1.0000 </r>
       <r>   -7.1576    1.0000 </r>
       <r>   -6.6508    1.0000 </r>
       <r>   -5.7499    1.0000 </r>
       <r>   -5.7460    1.0000 </r>
       <r>   -5.1911    1.0000 </r>
       <r>   -5.0489    1.0000 </r>
       <r>   -5.0462    1.0000 </r>
       <r>   -0.9826    0.0000 </r>
       <r>   -0.5837    0.0000 </r>
       <r>   -0.5835    0.0000 </r>
       <r>    0.1030    0.0000 </r>
       <r>    0.1040    0.0000 </r>
       <r>    1.1735    0.0000 </r>
       <r>    1.6817    0.0000 </r>
       <r>    1.9738    0.0000 </r>
       <r>    2.3063    0.0000 </r>
       <r>    2.4868    0.0000 </r>
      </set>
      <set comment="kpoint 10">
       <r>  -21.7750    1.0000 </r>
       <r>  -21.4027    1.0000 </r>
       <r>  -20.3042    1.0000 </r>
       <r>  -20.2906    1.0000 </r>
       <r>  -18.1652    1.0000 </r>
       <r>  -18.1511    1.0000 </r>
       <r>  -17.4884    1.0000 </r>
       <r>  -17.4742    1.0000 </r>
       <r>  -17.2299    1.0000 </r>
       <r>  -15.7420    1.0000 </r>
       <r>  -14.3289    1.0000 </r>
       <r>  -14.3172    1.0000 </r>
       <r>  -13.9574    1.0000 </r>
       <r>  -13.9463    1.0000 </r>
       <r>  -11.2652    1.0000 </r>
       <r>  -11.2505    1.0000 </r>
       <r>  -10.6083    1.0000 </r>
       <r>  -10.5956    1.0000 </r>
       <r>  -10.3338    1.0000 </r>
       <r>  -10.3191    1.0000 </r>
       <r>   -9.7878    1.0000 </r>
       <r>   -9.3486    1.0000 </r>
       <r>   -9.1486    1.0000 </r>
       <r>   -9.0894    1.0000 </r>
       <r>   -9.0800    1.0000 </r>
       <r>   -8.6409    1.0000 </r>
       <r>   -8.0667    1.0000 </r>
       <r>   -8.0546    1.0000 </r>
       <r>   -7.5326    1.0000 </r>
       <r>   -7.1740    1.0000 </r>
       <r>   -6.6705    1.0000 </r>
       <r>   -5.7525    1.0000 </r>
       <r>   -5.7408    1.0000 </r>
       <r>   -5.2019    1.0000 </r>
       <r>   -5.0524    1.0000 </r>
       <r>   -5.0410    1.0000 </r>
       <r>   -0.9641    0.0000 </r>
       <r>   -0.5935    0.0000 </r>
       <r>   -0.5773    0.0000 </r>
       <r>    0.0928    0.0000 </r>
       <r>    0.1096    0.0000 </r>
       <r>    1.1735    0.0000 </r>
       <r>    1.6817    0.0000 </r>
       <r>    1.9738    0.0000 </r>
       <r>    2.3063    0.0000 </r>
       <r>    2.4867    0.0000 </r>
      </set>
      <set comment="kpoint 11">
       <r>  -22.0953    1.0000 </r>
       <r>  -20.6143    1.0000 </r>
       <r>  -20.6077    1.0000 </r>
       <r>  -19.5238    1.0000 </r>
       <r>  -19.5148    1.0000 </r>
       <r>  -18.4583    1.0000 </r>
       <r>  -18.4515    1.0000 </r>
       <r>  -16.7784    1.0000 </r>
       <r>  -16.1642    1.0000 </r>
       <r>  -15.2354    1.0000 </r>
       <r>  -14.2594    1.0000 </r>
       <r>  -14.1652    1.0000 </r>
       <r>  -14.1536    1.0000 </r>
       <r>  -12.6016    1.0000 </r>
       <r>  -12.3094    1.0000 </r>
       <r>  -12.3010    1.0000 </r>
       <r>  -12.2716    1.0000 </r>
       <r>  -10.4966    1.0000 </r>
       <r>  -10.4790    1.0000 </r>
       <r>  -10.1682    1.0000 </r>
       <r>   -9.1882    1.0000 </r>
       <r>   -9.1747    1.0000 </r>
       <r>   -9.1272    1.0000 </r>
       <r>   -9.1142    1.0000 </r>
       <r>   -8.4286    1.0000 </r>
       <r>   -8.4232    1.0000 </r>
       <r>   -8.0824    1.0000 </r>
       <r>   -8.0632    1.0000 </r>
       <r>   -7.1959    1.0000 </r>
       <r>   -7.1876    1.0000 </r>
       <r>   -6.4165    1.0000 </r>
       <r>   -6.1237    1.0000 </r>
       <r>   -6.1065    1.0000 </r>
       <r>   -6.0993    1.0000 </r>
       <r>   -4.2555    1.0000 </r>
       <r>   -3.9032    1.0000 </r>
       <r>   -1.7053    0.0000 </r>
       <r>   -1.2688    0.0000 </r>
       <r>    0.2636    0.0000 </r>
       <r>    0.2773    0.0000 </r>
       <r>    0.7377    0.0000 </r>
       <r>    1.5329    0.0000 </r>
       <r>    1.8594    0.0000 </r>
       <r>    2.0089    0.0000 </r>
       <r>    2.0201    0.0000 </r>
       <r>    2.7775    0.0000 </r>
      </set>
      <set comment="kpoint 12">
       <r>  -22.0953    1.0000 </r>
       <r>  -20.6144    1.0000 </r>
       <r>  -20.6077    1.0000 </r>
       <r>  -19.5238    1.0000 </r>
       <r>  -19.5148    1.0000 </r>
       <r>  -18.4584    1.0000 </r>
       <r>  -18.4514    1.0000 </r>
       <r>  -16.7784    1.0000 </r>
       <r>  -16.1642    1.0000 </r>
       <r>  -15.2354    1.0000 </r>
       <r>  -14.2594    1.0000 </r>
       <r>  -14.1653    1.0000 </r>
       <r>  -14.1536    1.0000 </r>
       <r>  -12.6016    1.0000 </r>
       <r>  -12.3094    1.0000 </r>
       <r>  -12.3009    1.0000 </r>
       <r>  -12.2716    1.0000 </r>
       <r>  -10.4966    1.0000 </r>
       <r>  -10.4790    1.0000 </r>
       <r>  -10.1682    1.0000 </r>
       <r>   -9.1882    1.0000 </r>
       <r>   -9.1747    1.0000 </r>
       <r>   -9.1272    1.0000 </r>
       <r>   -9.1142    1.0000 </r>
       <r>   -8.4287    1.0000 </r>
       <r>   -8.4231    1.0000 </r>
       <r>   -8.0823    1.0000 </r>
       <r>   -8.0632    1.0000 </r>
       <r>   -7.1959    1.0000 </r>
       <r>   -7.1876    1.0000 </r>
       <r>   -6.4165    1.0000 </r>
       <r>   -6.1237    1.0000 </r>
       <r>   -6.1065    1.0000 </r>
       <r>   -6.0993    1.0000 </r>
       <r>   -4.2555    1.0000 </r>
       <r>   -3.9032    1.0000 </r>
       <r>   -1.7053    0.0000 </r>
       <r>   -1.2688    0.0000 </r>
       <r>    0.2636    0.0000 </r>
       <r>    0.2774    0.0000 </r>
       <r>    0.7377    0.0000 </r>
       <r>    1.5329    0.0000 </r>
       <r>    1.8594    0.0000 </r>
       <r>    2.0087    0.0000 </r>
       <r>    2.0203    0.0000 </r>
       <r>    2.7775    0.0000 </r>
      </set>
      <set comment="kpoint 13">
       <r>  -22.0953    1.0000 </r>
       <r>  -20.6176    1.0000 </r>
       <r>  -20.6044    1.0000 </r>
       <r>  -19.5286    1.0000 </r>
       <r>  -19.5106    1.0000 </r>
       <r>  -18.4617    1.0000 </r>
       <r>  -18.4480    1.0000 </r>
       <r>  -16.7794    1.0000 </r>
       <r>  -16.1568    1.0000 </r>
       <r>  -15.2504    1.0000 </r>
       <r>  -14.2485    1.0000 </r>
       <r>  -14.1657    1.0000 </r>
       <r>  -14.1458    1.0000 </r>
       <r>  -12.6112    1.0000 </r>
       <r>  -12.3198    1.0000 </r>
       <r>  -12.3067    1.0000 </r>
       <r>  -12.2651    1.0000 </r>
       <r>  -10.4959    1.0000 </r>
       <r>  -10.4716    1.0000 </r>
       <r>  -10.1683    1.0000 </r>
       <r>   -9.1800    1.0000 </r>
       <r>   -9.1597    1.0000 </r>
       <r>   -9.1344    1.0000 </r>
       <r>   -9.1183    1.0000 </r>
       <r>   -8.4315    1.0000 </r>
       <r>   -8.4211    1.0000 </r>
       <r>   -8.0890    1.0000 </r>
       <r>   -8.0669    1.0000 </r>
       <r>   -7.1971    1.0000 </r>
       <r>   -7.1808    1.0000 </r>
       <r>   -6.3930    1.0000 </r>
       <r>   -6.1474    1.0000 </r>
       <r>   -6.1114    1.0000 </r>
       <r>   -6.1016    1.0000 </r>
       <r>   -4.2624    1.0000 </r>
       <r>   -3.8917    1.0000 </r>
       <r>   -1.7208    0.0000 </r>
       <r>   -1.2581    0.0000 </r>
       <r>    0.2714    0.0000 </r>
       <r>    0.2844    0.0000 </r>
       <r>    0.7376    0.0000 </r>
       <r>    1.5328    0.0000 </r>
       <r>    1.8594    0.0000 </r>
       <r>    1.9951    0.0000 </r>
       <r>    2.0168    0.0000 </r>
       <r>    2.7775    0.0000 </r>
      </set>
      <set comment="kpoint 14">
       <r>  -21.8816    1.0000 </r>
       <r>  -21.1378    1.0000 </r>
       <r>  -20.7689    1.0000 </r>
       <r>  -19.6745    1.0000 </r>
       <r>  -18.9579    1.0000 </r>
       <r>  -17.9164    1.0000 </r>
       <r>  -17.5954    1.0000 </r>
       <r>  -17.5713    1.0000 </r>
       <r>  -16.6726    1.0000 </r>
       <r>  -15.2517    1.0000 </r>
       <r>  -15.2449    1.0000 </r>
       <r>  -14.6404    1.0000 </r>
       <r>  -13.7324    1.0000 </r>
       <r>  -12.8164    1.0000 </r>
       <r>  -11.8934    1.0000 </r>
       <r>  -11.6826    1.0000 </r>
       <r>  -11.3921    1.0000 </r>
       <r>  -10.0459    1.0000 </r>
       <r>   -9.9253    1.0000 </r>
       <r>   -9.9133    1.0000 </r>
       <r>   -9.7040    1.0000 </r>
       <r>   -9.6302    1.0000 </r>
       <r>   -9.2874    1.0000 </r>
       <r>   -9.2561    1.0000 </r>
       <r>   -9.0379    1.0000 </r>
       <r>   -8.6061    1.0000 </r>
       <r>   -8.2494    1.0000 </r>
       <r>   -7.5865    1.0000 </r>
       <r>   -7.3539    1.0000 </r>
       <r>   -7.1438    1.0000 </r>
       <r>   -6.5704    1.0000 </r>
       <r>   -6.5442    1.0000 </r>
       <r>   -5.5767    1.0000 </r>
       <r>   -5.3885    1.0000 </r>
       <r>   -5.0714    1.0000 </r>
       <r>   -4.4371    1.0000 </r>
       <r>   -1.2901    0.0000 </r>
       <r>   -0.6803    0.0000 </r>
       <r>   -0.4307    0.0000 </r>
       <r>   -0.3068    0.0000 </r>
       <r>    1.0282    0.0000 </r>
       <r>    1.2301    0.0000 </r>
       <r>    1.8269    0.0000 </r>
       <r>    2.0446    0.0000 </r>
       <r>    2.1574    0.0000 </r>
       <r>    2.4017    0.0000 </r>
      </set>
      <set comment="kpoint 15">
       <r>  -21.8817    1.0000 </r>
       <r>  -21.1380    1.0000 </r>
       <r>  -20.7686    1.0000 </r>
       <r>  -19.6742    1.0000 </r>
       <r>  -18.9581    1.0000 </r>
       <r>  -17.9170    1.0000 </r>
       <r>  -17.5946    1.0000 </r>
       <r>  -17.5709    1.0000 </r>
       <r>  -16.6723    1.0000 </r>
       <r>  -15.2615    1.0000 </r>
       <r>  -15.2448    1.0000 </r>
       <r>  -14.6324    1.0000 </r>
       <r>  -13.7283    1.0000 </r>
       <r>  -12.8199    1.0000 </r>
       <r>  -11.8975    1.0000 </r>
       <r>  -11.6763    1.0000 </r>
       <r>  -11.3914    1.0000 </r>
       <r>  -10.0414    1.0000 </r>
       <r>   -9.9156    1.0000 </r>
       <r>   -9.9073    1.0000 </r>
       <r>   -9.7143    1.0000 </r>
       <r>   -9.6374    1.0000 </r>
       <r>   -9.2756    1.0000 </r>
       <r>   -9.2727    1.0000 </r>
       <r>   -9.0369    1.0000 </r>
       <r>   -8.6075    1.0000 </r>
       <r>   -8.2676    1.0000 </r>
       <r>   -7.5684    1.0000 </r>
       <r>   -7.3556    1.0000 </r>
       <r>   -7.1537    1.0000 </r>
       <r>   -6.5682    1.0000 </r>
       <r>   -6.5341    1.0000 </r>
       <r>   -5.5835    1.0000 </r>
       <r>   -5.3794    1.0000 </r>
       <r>   -5.0730    1.0000 </r>
       <r>   -4.4355    1.0000 </r>
       <r>   -1.2925    0.0000 </r>
       <r>   -0.6966    0.0000 </r>
       <r>   -0.4267    0.0000 </r>
       <r>   -0.2944    0.0000 </r>
       <r>    1.0282    0.0000 </r>
       <r>    1.2245    0.0000 </r>
       <r>    1.8270    0.0000 </r>
       <r>    2.0446    0.0000 </r>
       <r>    2.1574    0.0000 </r>
       <r>    2.4081    0.0000 </r>
      </set>
      <set comment="kpoint 16">
       <r>  -21.8816    1.0000 </r>
       <r>  -21.1379    1.0000 </r>
       <r>  -20.7687    1.0000 </r>
       <r>  -19.6747    1.0000 </r>
       <r>  -18.9581    1.0000 </r>
       <r>  -17.9169    1.0000 </r>
       <r>  -17.5945    1.0000 </r>
       <r>  -17.5724    1.0000 </r>
       <r>  -16.6684    1.0000 </r>
       <r>  -15.2618    1.0000 </r>
       <r>  -15.2469    1.0000 </r>
       <r>  -14.6317    1.0000 </r>
       <r>  -13.7210    1.0000 </r>
       <r>  -12.8270    1.0000 </r>
       <r>  -11.9057    1.0000 </r>
       <r>  -11.6891    1.0000 </r>
       <r>  -11.3827    1.0000 </r>
       <r>  -10.0328    1.0000 </r>
       <r>   -9.9188    1.0000 </r>
       <r>   -9.9122    1.0000 </r>
       <r>   -9.7148    1.0000 </r>
       <r>   -9.6218    1.0000 </r>
       <r>   -9.2881    1.0000 </r>
       <r>   -9.2596    1.0000 </r>
       <r>   -9.0376    1.0000 </r>
       <r>   -8.6066    1.0000 </r>
       <r>   -8.2594    1.0000 </r>
       <r>   -7.5817    1.0000 </r>
       <r>   -7.3529    1.0000 </r>
       <r>   -7.1302    1.0000 </r>
       <r>   -6.5677    1.0000 </r>
       <r>   -6.5571    1.0000 </r>
       <r>   -5.5847    1.0000 </r>
       <r>   -5.3888    1.0000 </r>
       <r>   -5.0776    1.0000 </r>
       <r>   -4.4257    1.0000 </r>
       <r>   -1.3073    0.0000 </r>
       <r>   -0.6795    0.0000 </r>
       <r>   -0.4182    0.0000 </r>
       <r>   -0.2921    0.0000 </r>
       <r>    1.0281    0.0000 </r>
       <r>    1.2185    0.0000 </r>
       <r>    1.8269    0.0000 </r>
       <r>    2.0446    0.0000 </r>
       <r>    2.1574    0.0000 </r>
       <r>    2.3983    0.0000 </r>
      </set>
      <set comment="kpoint 17">
       <r>  -21.8816    1.0000 </r>
       <r>  -21.1378    1.0000 </r>
       <r>  -20.7689    1.0000 </r>
       <r>  -19.6745    1.0000 </r>
       <r>  -18.9579    1.0000 </r>
       <r>  -17.9164    1.0000 </r>
       <r>  -17.5955    1.0000 </r>
       <r>  -17.5713    1.0000 </r>
       <r>  -16.6726    1.0000 </r>
       <r>  -15.2517    1.0000 </r>
       <r>  -15.2449    1.0000 </r>
       <r>  -14.6404    1.0000 </r>
       <r>  -13.7324    1.0000 </r>
       <r>  -12.8164    1.0000 </r>
       <r>  -11.8934    1.0000 </r>
       <r>  -11.6826    1.0000 </r>
       <r>  -11.3921    1.0000 </r>
       <r>  -10.0459    1.0000 </r>
       <r>   -9.9252    1.0000 </r>
       <r>   -9.9133    1.0000 </r>
       <r>   -9.7040    1.0000 </r>
       <r>   -9.6302    1.0000 </r>
       <r>   -9.2874    1.0000 </r>
       <r>   -9.2561    1.0000 </r>
       <r>   -9.0379    1.0000 </r>
       <r>   -8.6061    1.0000 </r>
       <r>   -8.2494    1.0000 </r>
       <r>   -7.5865    1.0000 </r>
       <r>   -7.3539    1.0000 </r>
       <r>   -7.1438    1.0000 </r>
       <r>   -6.5704    1.0000 </r>
       <r>   -6.5443    1.0000 </r>
       <r>   -5.5767    1.0000 </r>
       <r>   -5.3885    1.0000 </r>
       <r>   -5.0714    1.0000 </r>
       <r>   -4.4371    1.0000 </r>
       <r>   -1.2901    0.0000 </r>
       <r>   -0.6803    0.0000 </r>
       <r>   -0.4307    0.0000 </r>
       <r>   -0.3068    0.0000 </r>
       <r>    1.0282    0.0000 </r>
       <r>    1.2301    0.0000 </r>
       <r>    1.8269    0.0000 </r>
       <r>    2.0446    0.0000 </r>
       <r>    2.1574    0.0000 </r>
       <r>    2.4017    0.0000 </r>
      </set>
      <set comment="kpoint 18">
       <r>  -21.8817    1.0000 </r>
       <r>  -21.1380    1.0000 </r>
       <r>  -20.7686    1.0000 </r>
       <r>  -19.6742    1.0000 </r>
       <r>  -18.9581    1.0000 </r>
       <r>  -17.9170    1.0000 </r>
       <r>  -17.5946    1.0000 </r>
       <r>  -17.5708    1.0000 </r>
       <r>  -16.6723    1.0000 </r>
       <r>  -15.2615    1.0000 </r>
       <r>  -15.2448    1.0000 </r>
       <r>  -14.6324    1.0000 </r>
       <r>  -13.7283    1.0000 </r>
       <r>  -12.8199    1.0000 </r>
       <r>  -11.8975    1.0000 </r>
       <r>  -11.6763    1.0000 </r>
       <r>  -11.3914    1.0000 </r>
       <r>  -10.0414    1.0000 </r>
       <r>   -9.9156    1.0000 </r>
       <r>   -9.9073    1.0000 </r>
       <r>   -9.7143    1.0000 </r>
       <r>   -9.6374    1.0000 </r>
       <r>   -9.2756    1.0000 </r>
       <r>   -9.2727    1.0000 </r>
       <r>   -9.0369    1.0000 </r>
       <r>   -8.6075    1.0000 </r>
       <r>   -8.2676    1.0000 </r>
       <r>   -7.5684    1.0000 </r>
       <r>   -7.3556    1.0000 </r>
       <r>   -7.1537    1.0000 </r>
       <r>   -6.5683    1.0000 </r>
       <r>   -6.5341    1.0000 </r>
       <r>   -5.5835    1.0000 </r>
       <r>   -5.3794    1.0000 </r>
       <r>   -5.0730    1.0000 </r>
       <r>   -4.4355    1.0000 </r>
       <r>   -1.2925    0.0000 </r>
       <r>   -0.6966    0.0000 </r>
       <r>   -0.4267    0.0000 </r>
       <r>   -0.2944    0.0000 </r>
       <r>    1.0282    0.0000 </r>
       <r>    1.2245    0.0000 </r>
       <r>    1.8270    0.0000 </r>
       <r>    2.0447    0.0000 </r>
       <r>    2.1574    0.0000 </r>
       <r>    2.4385    0.0000 </r>
      </set>
      <set comment="kpoint 19">
       <r>  -21.8816    1.0000 </r>
       <r>  -21.1379    1.0000 </r>
       <r>  -20.7687    1.0000 </r>
       <r>  -19.6747    1.0000 </r>
       <r>  -18.9581    1.0000 </r>
       <r>  -17.9169    1.0000 </r>
       <r>  -17.5945    1.0000 </r>
       <r>  -17.5724    1.0000 </r>
       <r>  -16.6684    1.0000 </r>
       <r>  -15.2618    1.0000 </r>
       <r>  -15.2469    1.0000 </r>
       <r>  -14.6317    1.0000 </r>
       <r>  -13.7210    1.0000 </r>
       <r>  -12.8270    1.0000 </r>
       <r>  -11.9056    1.0000 </r>
       <r>  -11.6891    1.0000 </r>
       <r>  -11.3827    1.0000 </r>
       <r>  -10.0328    1.0000 </r>
       <r>   -9.9188    1.0000 </r>
       <r>   -9.9122    1.0000 </r>
       <r>   -9.7148    1.0000 </r>
       <r>   -9.6218    1.0000 </r>
       <r>   -9.2881    1.0000 </r>
       <r>   -9.2596    1.0000 </r>
       <r>   -9.0376    1.0000 </r>
       <r>   -8.6066    1.0000 </r>
       <r>   -8.2594    1.0000 </r>
       <r>   -7.5817    1.0000 </r>
       <r>   -7.3529    1.0000 </r>
       <r>   -7.1302    1.0000 </r>
       <r>   -6.5677    1.0000 </r>
       <r>   -6.5571    1.0000 </r>
       <r>   -5.5847    1.0000 </r>
       <r>   -5.3888    1.0000 </r>
       <r>   -5.0776    1.0000 </r>
       <r>   -4.4257    1.0000 </r>
       <r>   -1.3073    0.0000 </r>
       <r>   -0.6795    0.0000 </r>
       <r>   -0.4182    0.0000 </r>
       <r>   -0.2921    0.0000 </r>
       <r>    1.0281    0.0000 </r>
       <r>    1.2185    0.0000 </r>
       <r>    1.8269    0.0000 </r>
       <r>    2.0446    0.0000 </r>
       <r>    2.1574    0.0000 </r>
       <r>    2.3983    0.0000 </r>
      </set>
      <set comment="kpoint 20">
       <r>  -21.5653    1.0000 </r>
       <r>  -21.5587    1.0000 </r>
       <r>  -20.8215    1.0000 </r>
       <r>  -19.7263    1.0000 </r>
       <r>  -18.3108    1.0000 </r>
       <r>  -18.3013    1.0000 </r>
       <r>  -17.3123    1.0000 </r>
       <r>  -17.3022    1.0000 </r>
       <r>  -16.9890    1.0000 </r>
       <r>  -15.9345    1.0000 </r>
       <r>  -15.0168    1.0000 </r>
       <r>  -15.0051    1.0000 </r>
       <r>  -13.2887    1.0000 </r>
       <r>  -13.2756    1.0000 </r>
       <r>  -11.3629    1.0000 </r>
       <r>  -10.9946    1.0000 </r>
       <r>  -10.9807    1.0000 </r>
       <r>  -10.5044    1.0000 </r>
       <r>  -10.4927    1.0000 </r>
       <r>   -9.9004    1.0000 </r>
       <r>   -9.6404    1.0000 </r>
       <r>   -9.5387    1.0000 </r>
       <r>   -9.5332    1.0000 </r>
       <r>   -9.3394    1.0000 </r>
       <r>   -8.6668    1.0000 </r>
       <r>   -8.4127    1.0000 </r>
       <r>   -8.1269    1.0000 </r>
       <r>   -8.1121    1.0000 </r>
       <r>   -7.4084    1.0000 </r>
       <r>   -7.0673    1.0000 </r>
       <r>   -7.0502    1.0000 </r>
       <r>   -5.8606    1.0000 </r>
       <r>   -5.8512    1.0000 </r>
       <r>   -5.0674    1.0000 </r>
       <r>   -5.0167    1.0000 </r>
       <r>   -5.0052    1.0000 </r>
       <r>   -1.0831    0.0000 </r>
       <r>   -0.8340    0.0000 </r>
       <r>   -0.8161    0.0000 </r>
       <r>    0.4040    0.0000 </r>
       <r>    0.4179    0.0000 </r>
       <r>    1.4638    0.0000 </r>
       <r>    1.4645    0.0000 </r>
       <r>    2.2671    0.0000 </r>
       <r>    2.2674    0.0000 </r>
       <r>    2.4810    0.0000 </r>
      </set>
      <set comment="kpoint 21">
       <r>  -21.5686    1.0000 </r>
       <r>  -21.5556    1.0000 </r>
       <r>  -20.8213    1.0000 </r>
       <r>  -19.7260    1.0000 </r>
       <r>  -18.3156    1.0000 </r>
       <r>  -18.2967    1.0000 </r>
       <r>  -17.3180    1.0000 </r>
       <r>  -17.2983    1.0000 </r>
       <r>  -16.9827    1.0000 </r>
       <r>  -15.9481    1.0000 </r>
       <r>  -15.0137    1.0000 </r>
       <r>  -15.0001    1.0000 </r>
       <r>  -13.2886    1.0000 </r>
       <r>  -13.2745    1.0000 </r>
       <r>  -11.3489    1.0000 </r>
       <r>  -10.9941    1.0000 </r>
       <r>  -10.9826    1.0000 </r>
       <r>  -10.5084    1.0000 </r>
       <r>  -10.4971    1.0000 </r>
       <r>   -9.9155    1.0000 </r>
       <r>   -9.6243    1.0000 </r>
       <r>   -9.5408    1.0000 </r>
       <r>   -9.5302    1.0000 </r>
       <r>   -9.3285    1.0000 </r>
       <r>   -8.6679    1.0000 </r>
       <r>   -8.4312    1.0000 </r>
       <r>   -8.1467    1.0000 </r>
       <r>   -8.1230    1.0000 </r>
       <r>   -7.4106    1.0000 </r>
       <r>   -7.0578    1.0000 </r>
       <r>   -7.0253    1.0000 </r>
       <r>   -5.8634    1.0000 </r>
       <r>   -5.8476    1.0000 </r>
       <r>   -5.0557    1.0000 </r>
       <r>   -5.0215    1.0000 </r>
       <r>   -5.0069    1.0000 </r>
       <r>   -1.1021    0.0000 </r>
       <r>   -0.8252    0.0000 </r>
       <r>   -0.8138    0.0000 </r>
       <r>    0.4027    0.0000 </r>
       <r>    0.4170    0.0000 </r>
       <r>    1.4634    0.0000 </r>
       <r>    1.4649    0.0000 </r>
       <r>    2.2671    0.0000 </r>
       <r>    2.2676    0.0000 </r>
       <r>    2.4862    0.0000 </r>
      </set>
      <set comment="kpoint 22">
       <r>  -21.5653    1.0000 </r>
       <r>  -21.5588    1.0000 </r>
       <r>  -20.8215    1.0000 </r>
       <r>  -19.7263    1.0000 </r>
       <r>  -18.3108    1.0000 </r>
       <r>  -18.3013    1.0000 </r>
       <r>  -17.3123    1.0000 </r>
       <r>  -17.3023    1.0000 </r>
       <r>  -16.9890    1.0000 </r>
       <r>  -15.9345    1.0000 </r>
       <r>  -15.0168    1.0000 </r>
       <r>  -15.0051    1.0000 </r>
       <r>  -13.2887    1.0000 </r>
       <r>  -13.2756    1.0000 </r>
       <r>  -11.3629    1.0000 </r>
       <r>  -10.9946    1.0000 </r>
       <r>  -10.9807    1.0000 </r>
       <r>  -10.5043    1.0000 </r>
       <r>  -10.4927    1.0000 </r>
       <r>   -9.9004    1.0000 </r>
       <r>   -9.6404    1.0000 </r>
       <r>   -9.5386    1.0000 </r>
       <r>   -9.5333    1.0000 </r>
       <r>   -9.3394    1.0000 </r>
       <r>   -8.6668    1.0000 </r>
       <r>   -8.4127    1.0000 </r>
       <r>   -8.1269    1.0000 </r>
       <r>   -8.1121    1.0000 </r>
       <r>   -7.4084    1.0000 </r>
       <r>   -7.0672    1.0000 </r>
       <r>   -7.0503    1.0000 </r>
       <r>   -5.8606    1.0000 </r>
       <r>   -5.8511    1.0000 </r>
       <r>   -5.0674    1.0000 </r>
       <r>   -5.0167    1.0000 </r>
       <r>   -5.0052    1.0000 </r>
       <r>   -1.0831    0.0000 </r>
       <r>   -0.8339    0.0000 </r>
       <r>   -0.8161    0.0000 </r>
       <r>    0.4041    0.0000 </r>
       <r>    0.4178    0.0000 </r>
       <r>    1.4638    0.0000 </r>
       <r>    1.4645    0.0000 </r>
       <r>    2.2671    0.0000 </r>
       <r>    2.2674    0.0000 </r>
       <r>    2.4855    0.0000 </r>
      </set>
      <set comment="kpoint 23">
       <r>  -21.6154    1.0000 </r>
       <r>  -21.2469    1.0000 </r>
       <r>  -21.2404    1.0000 </r>
       <r>  -19.0647    1.0000 </r>
       <r>  -19.0555    1.0000 </r>
       <r>  -18.3557    1.0000 </r>
       <r>  -17.0924    1.0000 </r>
       <r>  -17.0844    1.0000 </r>
       <r>  -16.7135    1.0000 </r>
       <r>  -15.6722    1.0000 </r>
       <r>  -15.6226    1.0000 </r>
       <r>  -15.6092    1.0000 </r>
       <r>  -12.9220    1.0000 </r>
       <r>  -12.2661    1.0000 </r>
       <r>  -12.2548    1.0000 </r>
       <r>  -11.3498    1.0000 </r>
       <r>  -10.5634    1.0000 </r>
       <r>  -10.5571    1.0000 </r>
       <r>  -10.5453    1.0000 </r>
       <r>   -9.8237    1.0000 </r>
       <r>   -9.8118    1.0000 </r>
       <r>   -9.5986    1.0000 </r>
       <r>   -9.1637    1.0000 </r>
       <r>   -9.1584    1.0000 </r>
       <r>   -8.8324    1.0000 </r>
       <r>   -8.8092    1.0000 </r>
       <r>   -7.8898    1.0000 </r>
       <r>   -7.6992    1.0000 </r>
       <r>   -7.6745    1.0000 </r>
       <r>   -7.0748    1.0000 </r>
       <r>   -6.6697    1.0000 </r>
       <r>   -6.6611    1.0000 </r>
       <r>   -5.8921    1.0000 </r>
       <r>   -5.0092    1.0000 </r>
       <r>   -4.9971    1.0000 </r>
       <r>   -4.6768    1.0000 </r>
       <r>   -1.2219    0.0000 </r>
       <r>   -1.0370    0.0000 </r>
       <r>   -1.0185    0.0000 </r>
       <r>    0.5249    0.0000 </r>
       <r>    1.3912    0.0000 </r>
       <r>    1.4784    0.0000 </r>
       <r>    1.4907    0.0000 </r>
       <r>    1.8999    0.0000 </r>
       <r>    1.9006    0.0000 </r>
       <r>    2.1941    0.0000 </r>
      </set>
      <set comment="kpoint 24">
       <r>  -21.6154    1.0000 </r>
       <r>  -21.2469    1.0000 </r>
       <r>  -21.2404    1.0000 </r>
       <r>  -19.0647    1.0000 </r>
       <r>  -19.0554    1.0000 </r>
       <r>  -18.3557    1.0000 </r>
       <r>  -17.0924    1.0000 </r>
       <r>  -17.0843    1.0000 </r>
       <r>  -16.7135    1.0000 </r>
       <r>  -15.6722    1.0000 </r>
       <r>  -15.6226    1.0000 </r>
       <r>  -15.6092    1.0000 </r>
       <r>  -12.9220    1.0000 </r>
       <r>  -12.2661    1.0000 </r>
       <r>  -12.2547    1.0000 </r>
       <r>  -11.3498    1.0000 </r>
       <r>  -10.5634    1.0000 </r>
       <r>  -10.5571    1.0000 </r>
       <r>  -10.5452    1.0000 </r>
       <r>   -9.8237    1.0000 </r>
       <r>   -9.8118    1.0000 </r>
       <r>   -9.5986    1.0000 </r>
       <r>   -9.1638    1.0000 </r>
       <r>   -9.1584    1.0000 </r>
       <r>   -8.8325    1.0000 </r>
       <r>   -8.8091    1.0000 </r>
       <r>   -7.8898    1.0000 </r>
       <r>   -7.6992    1.0000 </r>
       <r>   -7.6745    1.0000 </r>
       <r>   -7.0748    1.0000 </r>
       <r>   -6.6696    1.0000 </r>
       <r>   -6.6612    1.0000 </r>
       <r>   -5.8921    1.0000 </r>
       <r>   -5.0092    1.0000 </r>
       <r>   -4.9971    1.0000 </r>
       <r>   -4.6768    1.0000 </r>
       <r>   -1.2219    0.0000 </r>
       <r>   -1.0371    0.0000 </r>
       <r>   -1.0185    0.0000 </r>
       <r>    0.5249    0.0000 </r>
       <r>    1.3911    0.0000 </r>
       <r>    1.4785    0.0000 </r>
       <r>    1.4907    0.0000 </r>
       <r>    1.8997    0.0000 </r>
       <r>    1.9007    0.0000 </r>
       <r>    2.1941    0.0000 </r>
      </set>
      <set comment="kpoint 25">
       <r>  -21.6152    1.0000 </r>
       <r>  -21.2503    1.0000 </r>
       <r>  -21.2373    1.0000 </r>
       <r>  -19.0694    1.0000 </r>
       <r>  -19.0511    1.0000 </r>
       <r>  -18.3555    1.0000 </r>
       <r>  -17.0970    1.0000 </r>
       <r>  -17.0833    1.0000 </r>
       <r>  -16.7070    1.0000 </r>
       <r>  -15.6863    1.0000 </r>
       <r>  -15.6173    1.0000 </r>
       <r>  -15.6031    1.0000 </r>
       <r>  -12.9103    1.0000 </r>
       <r>  -12.2761    1.0000 </r>
       <r>  -12.2622    1.0000 </r>
       <r>  -11.3626    1.0000 </r>
       <r>  -10.5554    1.0000 </r>
       <r>  -10.5494    1.0000 </r>
       <r>  -10.5316    1.0000 </r>
       <r>   -9.8294    1.0000 </r>
       <r>   -9.8167    1.0000 </r>
       <r>   -9.5990    1.0000 </r>
       <r>   -9.1661    1.0000 </r>
       <r>   -9.1556    1.0000 </r>
       <r>   -8.8369    1.0000 </r>
       <r>   -8.8114    1.0000 </r>
       <r>   -7.8699    1.0000 </r>
       <r>   -7.6972    1.0000 </r>
       <r>   -7.6695    1.0000 </r>
       <r>   -7.0960    1.0000 </r>
       <r>   -6.6714    1.0000 </r>
       <r>   -6.6553    1.0000 </r>
       <r>   -5.8961    1.0000 </r>
       <r>   -5.0144    1.0000 </r>
       <r>   -5.0037    1.0000 </r>
       <r>   -4.6652    1.0000 </r>
       <r>   -1.2399    0.0000 </r>
       <r>   -1.0241    0.0000 </r>
       <r>   -1.0121    0.0000 </r>
       <r>    0.5347    0.0000 </r>
       <r>    1.3910    0.0000 </r>
       <r>    1.4694    0.0000 </r>
       <r>    1.4876    0.0000 </r>
       <r>    1.8994    0.0000 </r>
       <r>    1.9011    0.0000 </r>
       <r>    2.1941    0.0000 </r>
      </set>
     </set>
    </set>
   </array>
  </eigenvalues>
  <separator name="orbital magnetization" >
   <v name="MAGDIPOLOUT">      0.00000000      0.00000000      0.00000000</v>
  </separator>
  <dos>
   <i name="efermi">     -2.75522573 </i>
   <total>
    <array>
     <dimension dim="1">gridpoints</dimension>
     <dimension dim="2">spin</dimension>
     <field>energy</field>
     <field>total</field>
     <field>integrated</field>
     <set>
      <set comment="spin 1">
       <r>   -23.5113     0.0000     0.0000 </r>
       <r>   -23.4192     0.0000     0.0000 </r>
       <r>   -23.3272     0.0000     0.0000 </r>
       <r>   -23.2351     0.0000     0.0000 </r>
       <r>   -23.1430     0.0000     0.0000 </r>
       <r>   -23.0510     0.0000     0.0000 </r>
       <r>   -22.9589     0.0000     0.0000 </r>
       <r>   -22.8669     0.0000     0.0000 </r>
       <r>   -22.7748     0.0000     0.0000 </r>
       <r>   -22.6827     0.0000     0.0000 </r>
       <r>   -22.5907     0.0000     0.0000 </r>
       <r>   -22.4986     0.0000     0.0000 </r>
       <r>   -22.4066     0.0000     0.0000 </r>
       <r>   -22.3145     0.0236     0.0022 </r>
       <r>   -22.2224     1.1017     0.1036 </r>
       <r>   -22.1304     2.3658     0.3214 </r>
       <r>   -22.0383     3.5653     0.6496 </r>
       <r>   -21.9463     1.5380     0.7912 </r>
       <r>   -21.8542     4.0184     1.1611 </r>
       <r>   -21.7621     2.8375     1.4224 </r>
       <r>   -21.6701     1.1183     1.5253 </r>
       <r>   -21.5780     3.8489     1.8796 </r>
       <r>   -21.4860     3.9046     2.2391 </r>
       <r>   -21.3939     1.6539     2.3914 </r>
       <r>   -21.3019     1.3371     2.5144 </r>
       <r>   -21.2098     4.2554     2.9062 </r>
       <r>   -21.1177     4.6050     3.3301 </r>
       <r>   -21.0257     1.5154     3.4696 </r>
       <r>   -20.9336     1.1215     3.5729 </r>
       <r>   -20.8416     2.3767     3.7917 </r>
       <r>   -20.7495     5.5250     4.3003 </r>
       <r>   -20.6574     2.1240     4.4958 </r>
       <r>   -20.5654     4.2775     4.8896 </r>
       <r>   -20.4733     0.5342     4.9388 </r>
       <r>   -20.3813     0.5332     4.9879 </r>
       <r>   -20.2892     5.1607     5.4630 </r>
       <r>   -20.1971     4.6707     5.8930 </r>
       <r>   -20.1051     2.8999     6.1599 </r>
       <r>   -20.0130     1.1584     6.2666 </r>
       <r>   -19.9210     3.9932     6.6342 </r>
       <r>   -19.8289     0.2100     6.6535 </r>
       <r>   -19.7368     1.3387     6.7768 </r>
       <r>   -19.6448     7.6101     7.4773 </r>
       <r>   -19.5527     2.6242     7.7189 </r>
       <r>   -19.4607     4.1116     8.0974 </r>
       <r>   -19.3686     0.2796     8.1232 </r>
       <r>   -19.2765     1.8371     8.2923 </r>
       <r>   -19.1845     3.3983     8.6052 </r>
       <r>   -19.0924     1.0591     8.7027 </r>
       <r>   -19.0004     4.7077     9.1360 </r>
       <r>   -18.9083     5.7880     9.6689 </r>
       <r>   -18.8162     2.0453     9.8572 </r>
       <r>   -18.7242     4.0751    10.2323 </r>
       <r>   -18.6321     1.0217    10.3264 </r>
       <r>   -18.5401     0.0467    10.3307 </r>
       <r>   -18.4480     3.0340    10.6100 </r>
       <r>   -18.3559     3.9879    10.9771 </r>
       <r>   -18.2639     5.5886    11.4916 </r>
       <r>   -18.1718     2.5240    11.7240 </r>
       <r>   -18.0798     4.2086    12.1114 </r>
       <r>   -17.9877     1.9681    12.2926 </r>
       <r>   -17.8956     3.7818    12.6408 </r>
       <r>   -17.8036     1.4602    12.7752 </r>
       <r>   -17.7115     0.0064    12.7758 </r>
       <r>   -17.6195     1.7574    12.9376 </r>
       <r>   -17.5274     8.6962    13.7381 </r>
       <r>   -17.4353     4.9754    14.1962 </r>
       <r>   -17.3433     1.3869    14.3238 </r>
       <r>   -17.2512     4.8453    14.7699 </r>
       <r>   -17.1592     2.3433    14.9856 </r>
       <r>   -17.0671     3.8469    15.3398 </r>
       <r>   -16.9750     3.0818    15.6235 </r>
       <r>   -16.8830     0.9865    15.7143 </r>
       <r>   -16.7909     1.5425    15.8563 </r>
       <r>   -16.6989     8.7294    16.6599 </r>
       <r>   -16.6068     5.4999    17.1662 </r>
       <r>   -16.5147     0.1894    17.1837 </r>
       <r>   -16.4227     0.0000    17.1837 </r>
       <r>   -16.3306     0.0000    17.1837 </r>
       <r>   -16.2386     0.0405    17.1874 </r>
       <r>   -16.1465     1.7301    17.3467 </r>
       <r>   -16.0545     1.1522    17.4527 </r>
       <r>   -15.9624     4.7899    17.8937 </r>
       <r>   -15.8703     2.8537    18.1564 </r>
       <r>   -15.7783     0.5619    18.2081 </r>
       <r>   -15.6862     3.2243    18.5050 </r>
       <r>   -15.5942     5.3513    18.9976 </r>
       <r>   -15.5021     1.5727    19.1424 </r>
       <r>   -15.4100     0.0597    19.1479 </r>
       <r>   -15.3180     1.6423    19.2991 </r>
       <r>   -15.2259     9.9519    20.2152 </r>
       <r>   -15.1339     3.4177    20.5299 </r>
       <r>   -15.0418     0.9953    20.6215 </r>
       <r>   -14.9497     4.8986    21.0724 </r>
       <r>   -14.8577     4.4371    21.4809 </r>
       <r>   -14.7656     1.2977    21.6004 </r>
       <r>   -14.6736     2.8272    21.8607 </r>
       <r>   -14.5815     8.5197    22.6450 </r>
       <r>   -14.4894     0.9739    22.7346 </r>
       <r>   -14.3974     0.0952    22.7434 </r>
       <r>   -14.3053     3.7544    23.0890 </r>
       <r>   -14.2133     4.1536    23.4714 </r>
       <r>   -14.1212     4.4820    23.8840 </r>
       <r>   -14.0291     0.8910    23.9661 </r>
       <r>   -13.9371     3.3849    24.2777 </r>
       <r>   -13.8450     1.8553    24.4485 </r>
       <r>   -13.7530     1.2591    24.5644 </r>
       <r>   -13.6609     4.0000    24.9326 </r>
       <r>   -13.5688     2.3104    25.1453 </r>
       <r>   -13.4768     4.3321    25.5441 </r>
       <r>   -13.3847     1.4161    25.6745 </r>
       <r>   -13.2927     2.4404    25.8992 </r>
       <r>   -13.2006     3.6871    26.2386 </r>
       <r>   -13.1085     0.0690    26.2449 </r>
       <r>   -13.0165     0.8016    26.3187 </r>
       <r>   -12.9244     9.4303    27.1869 </r>
       <r>   -12.8324     5.0453    27.6514 </r>
       <r>   -12.7403     3.2821    27.9535 </r>
       <r>   -12.6482     0.3589    27.9865 </r>
       <r>   -12.5562     2.1341    28.1830 </r>
       <r>   -12.4641     0.2543    28.2064 </r>
       <r>   -12.3721     1.5813    28.3520 </r>
       <r>   -12.2800     7.9443    29.0833 </r>
       <r>   -12.1879     8.6983    29.8841 </r>
       <r>   -12.0959     2.9951    30.1598 </r>
       <r>   -12.0038     0.0463    30.1641 </r>
       <r>   -11.9118     1.8987    30.3389 </r>
       <r>   -11.8197     3.3917    30.6511 </r>
       <r>   -11.7276     3.6720    30.9892 </r>
       <r>   -11.6356     6.4749    31.5852 </r>
       <r>   -11.5435     0.5150    31.6326 </r>
       <r>   -11.4515     0.2290    31.6537 </r>
       <r>   -11.3594     6.4813    32.2504 </r>
       <r>   -11.2674     6.0489    32.8072 </r>
       <r>   -11.1753     3.3746    33.1179 </r>
       <r>   -11.0832     5.5652    33.6302 </r>
       <r>   -10.9912     4.7006    34.0630 </r>
       <r>   -10.8991     2.8269    34.3232 </r>
       <r>   -10.8071     0.0361    34.3265 </r>
       <r>   -10.7150     0.0033    34.3268 </r>
       <r>   -10.6229     1.4934    34.4643 </r>
       <r>   -10.5309    11.0148    35.4783 </r>
       <r>   -10.4388    10.6763    36.4612 </r>
       <r>   -10.3468     2.8242    36.7212 </r>
       <r>   -10.2547     5.9347    37.2675 </r>
       <r>   -10.1626     2.0532    37.4565 </r>
       <r>   -10.0706     4.2793    37.8505 </r>
       <r>    -9.9785     4.9734    38.3083 </r>
       <r>    -9.8865    10.8240    39.3048 </r>
       <r>    -9.7944    10.0109    40.2264 </r>
       <r>    -9.7023     6.2134    40.7984 </r>
       <r>    -9.6103     8.8080    41.6093 </r>
       <r>    -9.5182     8.8234    42.4216 </r>
       <r>    -9.4262     5.5167    42.9294 </r>
       <r>    -9.3341     3.7809    43.2775 </r>
       <r>    -9.2420    10.3899    44.2340 </r>
       <r>    -9.1500    11.9597    45.3350 </r>
       <r>    -9.0579    14.9007    46.7067 </r>
       <r>    -8.9659     6.7953    47.3323 </r>
       <r>    -8.8738     3.0242    47.6107 </r>
       <r>    -8.7817    12.4943    48.7609 </r>
       <r>    -8.6897     6.8278    49.3895 </r>
       <r>    -8.5976     7.4239    50.0729 </r>
       <r>    -8.5056     7.0748    50.7242 </r>
       <r>    -8.4135     8.0662    51.4668 </r>
       <r>    -8.3214     3.3335    51.7737 </r>
       <r>    -8.2294     4.0393    52.1455 </r>
       <r>    -8.1373     5.5246    52.6541 </r>
       <r>    -8.0453    13.8285    53.9272 </r>
       <r>    -7.9532     5.2340    54.4090 </r>
       <r>    -7.8611     4.9762    54.8671 </r>
       <r>    -7.7691     1.1708    54.9749 </r>
       <r>    -7.6770     8.4274    55.7507 </r>
       <r>    -7.5850     7.0110    56.3962 </r>
       <r>    -7.4929     5.1499    56.8703 </r>
       <r>    -7.4008     2.9271    57.1397 </r>
       <r>    -7.3088     7.3579    57.8171 </r>
       <r>    -7.2167     2.2637    58.0255 </r>
       <r>    -7.1247    10.0348    58.9493 </r>
       <r>    -7.0326     7.8342    59.6705 </r>
       <r>    -6.9405     3.4402    59.9872 </r>
       <r>    -6.8485     3.5858    60.3173 </r>
       <r>    -6.7564     0.1427    60.3305 </r>
       <r>    -6.6644     4.3205    60.7282 </r>
       <r>    -6.5723    10.5590    61.7003 </r>
       <r>    -6.4803     8.8241    62.5126 </r>
       <r>    -6.3882     4.1243    62.8923 </r>
       <r>    -6.2961     4.0270    63.2630 </r>
       <r>    -6.2041     1.7816    63.4270 </r>
       <r>    -6.1120     4.9573    63.8834 </r>
       <r>    -6.0200     4.8090    64.3261 </r>
       <r>    -5.9279     2.8583    64.5892 </r>
       <r>    -5.8358     7.9432    65.3205 </r>
       <r>    -5.7438     7.1474    65.9785 </r>
       <r>    -5.6517     3.4440    66.2955 </r>
       <r>    -5.5597     3.7863    66.6441 </r>
       <r>    -5.4676     1.4804    66.7804 </r>
       <r>    -5.3755     3.1961    67.0746 </r>
       <r>    -5.2835     2.0830    67.2664 </r>
       <r>    -5.1914     1.5257    67.4068 </r>
       <r>    -5.0994     3.2400    67.7051 </r>
       <r>    -5.0073    15.6334    69.1443 </r>
       <r>    -4.9152     6.1392    69.7095 </r>
       <r>    -4.8232     0.0523    69.7143 </r>
       <r>    -4.7311     0.1377    69.7270 </r>
       <r>    -4.6391     2.0648    69.9170 </r>
       <r>    -4.5470     0.4608    69.9595 </r>
       <r>    -4.4549     1.4210    70.0903 </r>
       <r>    -4.3629     3.9614    70.4550 </r>
       <r>    -4.2708     5.0592    70.9207 </r>
       <r>    -4.1788     2.8199    71.1803 </r>
       <r>    -4.0867     0.0365    71.1837 </r>
       <r>    -3.9946     0.0102    71.1846 </r>
       <r>    -3.9026     1.2249    71.2974 </r>
       <r>    -3.8105     1.4077    71.4270 </r>
       <r>    -3.7185     0.0174    71.4286 </r>
       <r>    -3.6264     0.0139    71.4299 </r>
       <r>    -3.5343     2.1941    71.6318 </r>
       <r>    -3.4423     3.0640    71.9139 </r>
       <r>    -3.3502     0.0483    71.9184 </r>
       <r>    -3.2582     0.0000    71.9184 </r>
       <r>    -3.1661     0.0000    71.9184 </r>
       <r>    -3.0740     0.0000    71.9184 </r>
       <r>    -2.9820     0.0000    71.9184 </r>
       <r>    -2.8899     0.0002    71.9184 </r>
       <r>    -2.7979     0.2208    71.9387 </r>
       <r>    -2.7058     1.3928    72.0669 </r>
       <r>    -2.6137     0.1596    72.0816 </r>
       <r>    -2.5217     0.0001    72.0816 </r>
       <r>    -2.4296     0.0000    72.0816 </r>
       <r>    -2.3376     0.0000    72.0816 </r>
       <r>    -2.2455     0.0000    72.0816 </r>
       <r>    -2.1534     0.0001    72.0816 </r>
       <r>    -2.0614     0.3006    72.1093 </r>
       <r>    -1.9693     4.1560    72.4919 </r>
       <r>    -1.8773     0.8628    72.5713 </r>
       <r>    -1.7852     0.0526    72.5762 </r>
       <r>    -1.6931     1.7683    72.7390 </r>
       <r>    -1.6011     0.8372    72.8160 </r>
       <r>    -1.5090     0.0032    72.8163 </r>
       <r>    -1.4170     0.0029    72.8166 </r>
       <r>    -1.3249     1.9307    72.9943 </r>
       <r>    -1.2329    11.4250    74.0461 </r>
       <r>    -1.1408     2.7966    74.3036 </r>
       <r>    -1.0487     3.5108    74.6268 </r>
       <r>    -0.9567     5.8237    75.1629 </r>
       <r>    -0.8646     1.7845    75.3272 </r>
       <r>    -0.7726     4.2565    75.7190 </r>
       <r>    -0.6805     3.3582    76.0282 </r>
       <r>    -0.5884     4.7810    76.4683 </r>
       <r>    -0.4964     2.9799    76.7427 </r>
       <r>    -0.4043     3.7570    77.0885 </r>
       <r>    -0.3123     3.3513    77.3971 </r>
       <r>    -0.2202     5.1959    77.8754 </r>
       <r>    -0.1281     0.9073    77.9589 </r>
       <r>    -0.0361     0.0033    77.9592 </r>
       <r>     0.0560     0.5377    78.0087 </r>
       <r>     0.1480     4.2502    78.4000 </r>
       <r>     0.2401     1.4997    78.5380 </r>
       <r>     0.3322     4.1611    78.9211 </r>
       <r>     0.4242     3.6421    79.2564 </r>
       <r>     0.5163     3.0922    79.5411 </r>
       <r>     0.6083     3.6472    79.8768 </r>
       <r>     0.7004     1.3271    79.9990 </r>
       <r>     0.7925     5.8535    80.5379 </r>
       <r>     0.8845     5.8952    81.0806 </r>
       <r>     0.9766     1.4990    81.2186 </r>
       <r>     1.0686     4.2748    81.6121 </r>
       <r>     1.1607     1.8175    81.7794 </r>
       <r>     1.2528     5.6854    82.3028 </r>
       <r>     1.3448     2.0935    82.4956 </r>
       <r>     1.4369     6.9098    83.1317 </r>
       <r>     1.5289    14.0708    84.4270 </r>
       <r>     1.6210     4.4723    84.8387 </r>
       <r>     1.7131     4.6478    85.2666 </r>
       <r>     1.8051     3.3623    85.5761 </r>
       <r>     1.8972     8.7905    86.3854 </r>
       <r>     1.9892     8.8996    87.2047 </r>
       <r>     2.0813     9.2206    88.0535 </r>
       <r>     2.1734     6.8205    88.6814 </r>
       <r>     2.2654     7.0057    89.3264 </r>
       <r>     2.3575     7.3444    90.0025 </r>
       <r>     2.4495     5.8306    90.5393 </r>
       <r>     2.5416     4.9404    90.9941 </r>
       <r>     2.6337     1.7297    91.1533 </r>
       <r>     2.7257     1.9585    91.3336 </r>
       <r>     2.8178     4.5941    91.7565 </r>
       <r>     2.9098     2.5149    91.9880 </r>
       <r>     3.0019     0.1299    92.0000 </r>
       <r>     3.0940     0.0000    92.0000 </r>
       <r>     3.1860     0.0000    92.0000 </r>
       <r>     3.2781     0.0000    92.0000 </r>
       <r>     3.3701     0.0000    92.0000 </r>
       <r>     3.4622     0.0000    92.0000 </r>
       <r>     3.5542     0.0000    92.0000 </r>
       <r>     3.6463     0.0000    92.0000 </r>
       <r>     3.7384     0.0000    92.0000 </r>
       <r>     3.8304     0.0000    92.0000 </r>
       <r>     3.9225     0.0000    92.0000 </r>
       <r>     4.0145     0.0000    92.0000 </r>
       <r>     4.1066     0.0000    92.0000 </r>
      </set>
     </set>
    </array>
   </total>
  </dos>
 </calculation>
 <structure name="finalpos" >
  <crystal>
   <varray name="basis" >
    <v>       7.40170591       0.00000000       0.00000000 </v>
    <v>      -3.70085295       6.41006527       0.00000000 </v>
    <v>       0.00000000       0.00000000      20.00000000 </v>
   </varray>
   <i name="volume">    948.90835877 </i>
   <varray name="rec_basis" >
    <v>       0.13510399       0.07800233       0.00000000 </v>
    <v>       0.00000000       0.15600465       0.00000000 </v>
    <v>       0.00000000       0.00000000       0.05000000 </v>
   </varray>
  </crystal>
  <varray name="positions" >
   <v>       0.99921998       0.99843995       0.50000000 </v>
   <v>       0.33333333       0.00000000       0.50000000 </v>
   <v>       0.66666667       0.00000000       0.50000000 </v>
   <v>       0.00000000       0.33333333       0.50000000 </v>
   <v>       0.33333333       0.33333333       0.50000000 </v>
   <v>       0.66666667       0.33333333       0.50000000 </v>
   <v>       0.00000000       0.66666667       0.50000000 </v>
   <v>       0.33333333       0.66666667       0.50000000 </v>
   <v>       0.66666667       0.66666667       0.50000000 </v>
   <v>       0.22222222       0.11111111       0.50050000 </v>
   <v>       0.55555556       0.11111111       0.50000000 </v>
   <v>       0.88888889       0.11111111       0.50000000 </v>
   <v>       0.22222222       0.44444444       0.50000000 </v>
   <v>       0.55555556       0.44444444       0.50000000 </v>
   <v>       0.88888889       0.44444444       0.50000000 </v>
   <v>       0.22222222       0.77777778       0.50000000 </v>
   <v>       0.55555556       0.77777778       0.50000000 </v>
   <v>       0.88888889       0.77777778       0.50000000 </v>
  </varray>
 </structure>
</modeling>
