<?xml version="1.0" encoding="ISO-8859-1"?>
<modeling>
 <generator>
  <i name="program" type="string">vasp </i>
  <i name="version" type="string">6.4.1  </i>
  <i name="subversion" type="string">05Apr23 (build Feb 12 2025 00:37:39) complex                          parallel </i>
  <i name="platform" type="string">LinuxIFC </i>
  <i name="date" type="string">2025 02 14 </i>
  <i name="time" type="string">06:05:49 </i>
 </generator>
 <incar>
  <i type="string" name="SYSTEM">SCF</i>
  <i type="int" name="ISTART">     0</i>
  <i type="int" name="ICHARG">     2</i>
  <i type="int" name="NELM">    60</i>
  <i type="int" name="NELMIN">     6</i>
  <i name="EDIFF">      0.00000100</i>
  <i name="EDIFFG">     -0.00000100</i>
  <i name="ENCUT">    600.00000000</i>
  <i type="string" name="LREAL">Auto</i>
  <i type="int" name="ISMEAR">     0</i>
  <i name="SIGMA">      0.05000000</i>
  <i type="logical" name="LWAVE"> F  </i>
  <i type="logical" name="LCHARG"> F  </i>
 </incar>
 <primitive_cell>
  <structure name="primitive_cell" >
   <crystal>
    <varray name="basis" >
     <v>       7.40170591       0.00000000       0.00000000 </v>
     <v>      -3.70085295       6.41006527       0.00000000 </v>
     <v>       0.00000000       0.00000000      20.00000000 </v>
    </varray>
    <i name="volume">    948.90835877 </i>
    <varray name="rec_basis" >
     <v>       0.13510399       0.07800233       0.00000000 </v>
     <v>       0.00000000       0.15600465       0.00000000 </v>
     <v>       0.00000000       0.00000000       0.05000000 </v>
    </varray>
   </crystal>
   <varray name="positions" >
    <v>       0.00000000       0.00000000       0.49950000 </v>
    <v>       0.33333333       0.00000000       0.50000000 </v>
    <v>       0.66666667       0.00000000       0.50000000 </v>
    <v>       1.00000000       0.33333333       0.50000000 </v>
    <v>       0.33333333       0.33333333       0.50000000 </v>
    <v>       0.66666667       0.33333333       0.50000000 </v>
    <v>       1.00000000       0.66666667       0.50000000 </v>
    <v>       0.33333333       0.66666667       0.50000000 </v>
    <v>       0.66666667       0.66666667       0.50000000 </v>
    <v>       0.22087118       0.11111111       0.50000000 </v>
    <v>       0.55555556       0.11111111       0.50000000 </v>
    <v>       0.88888889       0.11111111       0.50000000 </v>
    <v>       0.22222222       0.44444444       0.50000000 </v>
    <v>       0.55555556       0.44444444       0.50000000 </v>
    <v>       0.88888889       0.44444444       0.50000000 </v>
    <v>       0.22222222       0.77777778       0.50000000 </v>
    <v>       0.55555556       0.77777778       0.50000000 </v>
    <v>       0.88888889       0.77777778       0.50000000 </v>
   </varray>
  </structure>
  <varray name="primitive_index" >
   <v type="int" >        1 </v>
   <v type="int" >        2 </v>
   <v type="int" >        3 </v>
   <v type="int" >        4 </v>
   <v type="int" >        5 </v>
   <v type="int" >        6 </v>
   <v type="int" >        7 </v>
   <v type="int" >        8 </v>
   <v type="int" >        9 </v>
   <v type="int" >       10 </v>
   <v type="int" >       11 </v>
   <v type="int" >       12 </v>
   <v type="int" >       13 </v>
   <v type="int" >       14 </v>
   <v type="int" >       15 </v>
   <v type="int" >       16 </v>
   <v type="int" >       17 </v>
   <v type="int" >       18 </v>
  </varray>
 </primitive_cell>
 <kpoints>
  <generation param="Gamma">
   <v type="int" name="divisions">       7        7        1 </v>
   <v name="usershift">      0.00000000       0.00000000       0.00000000 </v>
   <v name="genvec1">      0.14285714       0.00000000       0.00000000 </v>
   <v name="genvec2">      0.00000000       0.14285714       0.00000000 </v>
   <v name="genvec3">      0.00000000       0.00000000       1.00000000 </v>
   <v name="shift">      0.00000000       0.00000000       0.00000000 </v>
  </generation>
  <varray name="kpointlist" >
   <v>       0.00000000       0.00000000       0.00000000 </v>
   <v>       0.14285714       0.00000000       0.00000000 </v>
   <v>       0.00000000       0.14285714       0.00000000 </v>
   <v>      -0.14285714       0.14285714       0.00000000 </v>
   <v>       0.28571429       0.00000000       0.00000000 </v>
   <v>       0.00000000       0.28571429       0.00000000 </v>
   <v>      -0.28571429       0.28571429       0.00000000 </v>
   <v>       0.42857143       0.00000000       0.00000000 </v>
   <v>       0.00000000       0.42857143       0.00000000 </v>
   <v>      -0.42857143       0.42857143       0.00000000 </v>
   <v>       0.14285714       0.14285714       0.00000000 </v>
   <v>      -0.14285714       0.28571429       0.00000000 </v>
   <v>      -0.28571429       0.14285714       0.00000000 </v>
   <v>       0.28571429       0.14285714       0.00000000 </v>
   <v>      -0.14285714       0.42857143       0.00000000 </v>
   <v>      -0.42857143       0.28571429       0.00000000 </v>
   <v>      -0.28571429       0.42857143       0.00000000 </v>
   <v>       0.14285714       0.28571429       0.00000000 </v>
   <v>       0.42857143      -0.14285714       0.00000000 </v>
   <v>       0.42857143       0.14285714       0.00000000 </v>
   <v>      -0.14285714      -0.42857143       0.00000000 </v>
   <v>       0.42857143       0.42857143       0.00000000 </v>
   <v>       0.28571429       0.28571429       0.00000000 </v>
   <v>      -0.28571429      -0.42857143       0.00000000 </v>
   <v>       0.42857143       0.28571429       0.00000000 </v>
  </varray>
  <varray name="weights" >
   <v>       0.02040816 </v>
   <v>       0.04081633 </v>
   <v>       0.04081633 </v>
   <v>       0.04081633 </v>
   <v>       0.04081633 </v>
   <v>       0.04081633 </v>
   <v>       0.04081633 </v>
   <v>       0.04081633 </v>
   <v>       0.04081633 </v>
   <v>       0.04081633 </v>
   <v>       0.04081633 </v>
   <v>       0.04081633 </v>
   <v>       0.04081633 </v>
   <v>       0.04081633 </v>
   <v>       0.04081633 </v>
   <v>       0.04081633 </v>
   <v>       0.04081633 </v>
   <v>       0.04081633 </v>
   <v>       0.04081633 </v>
   <v>       0.04081633 </v>
   <v>       0.04081633 </v>
   <v>       0.04081633 </v>
   <v>       0.04081633 </v>
   <v>       0.04081633 </v>
   <v>       0.04081633 </v>
  </varray>
 </kpoints>
 <parameters>
  <separator name="general" >
   <i type="string" name="SYSTEM">SCF</i>
   <i type="logical" name="LCOMPAT"> F  </i>
  </separator>
  <separator name="electronic" >
   <i type="string" name="PREC">normal</i>
   <i name="ENMAX">    600.00000000</i>
   <i name="ENAUG">    644.87300000</i>
   <i name="EDIFF">      0.00000100</i>
   <i type="int" name="IALGO">    38</i>
   <i type="int" name="IWAVPR">    10</i>
   <i type="int" name="NBANDS">    46</i>
   <i type="int" name="NBANDSLOW">    -1</i>
   <i type="int" name="NBANDSHIGH">    -1</i>
   <i name="NELECT">     72.00000000</i>
   <i type="int" name="TURBO">     0</i>
   <i type="int" name="IRESTART">     0</i>
   <i type="int" name="NREBOOT">     0</i>
   <i type="int" name="NMIN">     0</i>
   <i name="EREF">      0.00000000</i>
   <separator name="electronic smearing" >
    <i type="int" name="ISMEAR">     0</i>
    <i name="SIGMA">      0.05000000</i>
    <i name="KSPACING">      0.50000000</i>
    <i type="logical" name="KGAMMA"> T  </i>
    <i type="logical" name="KBLOWUP"> T  </i>
   </separator>
   <separator name="electronic projectors" >
    <i type="logical" name="LREAL"> T  </i>
    <v name="ROPT">     -0.00050000</v>
    <i type="int" name="LMAXPAW">  -100</i>
    <i type="int" name="LMAXMIX">     2</i>
    <i type="logical" name="NLSPLINE"> F  </i>
   </separator>
   <separator name="electronic startup" >
    <i type="int" name="ISTART">     0</i>
    <i type="int" name="ICHARG">     2</i>
    <i type="int" name="INIWAV">     1</i>
   </separator>
   <separator name="electronic spin" >
    <i type="int" name="ISPIN">     1</i>
    <i type="logical" name="LNONCOLLINEAR"> F  </i>
    <v name="MAGMOM">      1.00000000      1.00000000      1.00000000      1.00000000      1.00000000      1.00000000      1.00000000      1.00000000      1.00000000      1.00000000      1.00000000      1.00000000      1.00000000      1.00000000      1.00000000      1.00000000      1.00000000      1.00000000</v>
    <i name="NUPDOWN">     -1.00000000</i>
    <i type="logical" name="LSORBIT"> F  </i>
    <v name="SAXIS">      0.00000000      0.00000000      1.00000000</v>
    <i type="logical" name="LSPIRAL"> F  </i>
    <v name="QSPIRAL">      0.00000000      0.00000000      0.00000000</v>
    <i type="logical" name="LZEROZ"> F  </i>
   </separator>
   <separator name="electronic exchange-correlation" >
    <i type="logical" name="LASPH"> F  </i>
    <i type="logical" name="LMETAGGA"> F  </i>
   </separator>
   <separator name="electronic convergence" >
    <i type="int" name="NELM">    60</i>
    <i type="int" name="NELMDL">    -5</i>
    <i type="int" name="NELMIN">     6</i>
    <i name="ENINI">    600.00000000</i>
    <separator name="electronic convergence detail" >
     <i type="logical" name="LDIAG"> T  </i>
     <i type="logical" name="LSUBROT"> F  </i>
     <i name="WEIMIN">      0.00000000</i>
     <i name="EBREAK">      0.00000000</i>
     <i name="DEPER">      0.30000000</i>
     <i type="int" name="NRMM">     4</i>
     <i name="TIME">      0.40000000</i>
    </separator>
   </separator>
   <separator name="electronic mixer" >
    <i name="AMIX">      0.40000000</i>
    <i name="BMIX">      1.00000000</i>
    <i name="AMIN">      0.10000000</i>
    <i name="AMIX_MAG">      1.60000000</i>
    <i name="BMIX_MAG">      1.00000000</i>
    <separator name="electronic mixer details" >
     <i type="int" name="IMIX">     4</i>
     <i type="logical" name="MIXFIRST"> F  </i>
     <i type="int" name="MAXMIX">   -45</i>
     <i name="WC">    100.00000000</i>
     <i type="int" name="INIMIX">     1</i>
     <i type="int" name="MIXPRE">     1</i>
     <i type="int" name="MREMOVE">     5</i>
    </separator>
   </separator>
   <separator name="electronic dipolcorrection" >
    <i type="logical" name="LDIPOL"> F  </i>
    <i type="logical" name="LMONO"> F  </i>
    <i type="int" name="IDIPOL">     0</i>
    <i name="EPSILON">      1.00000000</i>
    <v name="DIPOL">   -100.00000000   -100.00000000   -100.00000000</v>
    <i name="EFIELD">      0.00000000</i>
   </separator>
  </separator>
  <separator name="grids" >
   <i type="int" name="NGX">    48</i>
   <i type="int" name="NGY">    48</i>
   <i type="int" name="NGZ">   120</i>
   <i type="int" name="NGXF">    96</i>
   <i type="int" name="NGYF">    96</i>
   <i type="int" name="NGZF">   240</i>
   <i type="logical" name="ADDGRID"> F  </i>
  </separator>
  <separator name="ionic" >
   <i type="int" name="NSW">     0</i>
   <i type="int" name="IBRION">    -1</i>
   <i type="int" name="MDALGO">     0</i>
   <i type="int" name="ISIF">     2</i>
   <i name="PSTRESS">      0.00000000</i>
   <i name="EDIFFG">     -0.00000100</i>
   <i type="int" name="NFREE">     0</i>
   <i name="POTIM">      0.50000000</i>
   <i name="SMASS">     -3.00000000</i>
   <i name="SCALEE">      1.00000000</i>
  </separator>
  <separator name="ionic md" >
   <i name="TEBEG">      0.00010000</i>
   <i name="TEEND">      0.00010000</i>
   <i type="int" name="NBLOCK">     1</i>
   <i type="int" name="KBLOCK">     1</i>
   <i type="int" name="NPACO">   256</i>
   <i name="APACO">     10.00000000</i>
  </separator>
  <separator name="symmetry" >
   <i type="int" name="ISYM">     2</i>
   <i name="SYMPREC">      0.00001000</i>
  </separator>
  <separator name="dos" >
   <i type="int" name="LORBIT">     0</i>
   <v name="RWIGS">     -1.00000000</v>
   <i type="int" name="NEDOS">   301</i>
   <i name="EMIN">     10.00000000</i>
   <i name="EMAX">    -10.00000000</i>
   <i name="EFERMI">      0.00000000</i>
  </separator>
  <separator name="writing" >
   <i type="int" name="NWRITE">     2</i>
   <i type="logical" name="LWAVE"> F  </i>
   <i type="logical" name="LDOWNSAMPLE"> F  </i>
   <i type="logical" name="LCHARG"> F  </i>
   <i type="logical" name="LPARD"> F  </i>
   <i type="logical" name="LVTOT"> F  </i>
   <i type="logical" name="LVHAR"> F  </i>
   <i type="logical" name="LELF"> F  </i>
   <i type="logical" name="LOPTICS"> F  </i>
   <v name="STM">      0.00000000      0.00000000      0.00000000      0.00000000      0.00000000      0.00000000      0.00000000</v>
  </separator>
  <separator name="performance" >
   <i type="int" name="NPAR">     2</i>
   <i type="int" name="NSIM">     4</i>
   <i type="int" name="NBLK">    -1</i>
   <i type="logical" name="LPLANE"> T  </i>
   <i type="logical" name="LSCALAPACK"> T  </i>
   <i type="logical" name="LSCAAWARE"> F  </i>
   <i type="logical" name="LSCALU"> F  </i>
   <i type="logical" name="LASYNC"> F  </i>
   <i type="logical" name="LORBITALREAL"> F  </i>
  </separator>
  <separator name="miscellaneous" >
   <i type="int" name="IDIOT">     3</i>
   <i type="int" name="PHON_NSTRUCT">    -1</i>
   <i type="logical" name="LMUSIC"> F  </i>
   <v name="POMASS">     12.01100000</v>
   <v name="DARWINR">      0.00000000</v>
   <v name="DARWINV">      1.00000000</v>
   <i type="logical" name="LCORR"> T  </i>
  </separator>
  <i type="logical" name="GGA_COMPAT"> T  </i>
  <i type="logical" name="LBERRY"> F  </i>
  <i type="int" name="ICORELEVEL">     0</i>
  <i type="logical" name="LDAU"> F  </i>
  <i type="int" name="I_CONSTRAINED_M">     0</i>
  <separator name="electronic exchange-correlation" >
   <i type="string" name="GGA">--</i>
   <i type="int" name="VOSKOWN">     0</i>
   <i type="logical" name="LHFCALC"> F  </i>
   <i type="string" name="PRECFOCK"></i>
   <i type="logical" name="LSYMGRAD"> F  </i>
   <i type="logical" name="LHFONE"> F  </i>
   <i type="logical" name="LRHFCALC"> F  </i>
   <i type="logical" name="LTHOMAS"> F  </i>
   <i type="logical" name="LMODELHF"> F  </i>
   <i type="logical" name="LFOCKACE"> F  </i>
   <i name="ENCUT4O">     -1.00000000</i>
   <i type="int" name="EXXOEP">     0</i>
   <i type="int" name="FOURORBIT">     0</i>
   <i name="AEXX">      0.00000000</i>
   <i name="HFALPHA">      0.00000000</i>
   <i name="MCALPHA">      0.00000000</i>
   <i name="ALDAX">      1.00000000</i>
   <i name="AGGAX">      1.00000000</i>
   <i name="ALDAC">      1.00000000</i>
   <i name="AGGAC">      1.00000000</i>
   <i type="int" name="NKREDX">     1</i>
   <i type="int" name="NKREDY">     1</i>
   <i type="int" name="NKREDZ">     1</i>
   <i type="logical" name="SHIFTRED"> F  </i>
   <i type="logical" name="ODDONLY"> F  </i>
   <i type="logical" name="EVENONLY"> F  </i>
   <i type="int" name="LMAXFOCK">     0</i>
   <i type="int" name="NMAXFOCKAE">     0</i>
   <i type="logical" name="LFOCKAEDFT"> F  </i>
   <i name="HFSCREEN">      0.00000000</i>
   <i name="HFSCREENC">      0.00000000</i>
   <i type="int" name="NBANDSGWLOW">     0</i>
  </separator>
  <separator name="vdW DFT" >
   <i type="logical" name="LUSE_VDW"> F  </i>
   <i type="int" name="IVDW_NL">     1</i>
   <i type="logical" name="LSPIN_VDW"> F  </i>
   <i name="Zab_VDW">     -0.84910000</i>
   <i name="PARAM1">      0.12340000</i>
   <i name="PARAM2">      1.00000000</i>
   <i name="PARAM3">      0.00000000</i>
  </separator>
  <separator name="model GW" >
   <i type="int" name="MODEL_GW">     0</i>
   <i name="MODEL_EPS0">     31.63027863</i>
   <i name="MODEL_ALPHA">      1.00000000</i>
  </separator>
  <separator name="linear response parameters" >
   <i type="logical" name="LEPSILON"> F  </i>
   <i type="logical" name="LRPA"> F  </i>
   <i type="logical" name="LNABLA"> F  </i>
   <i type="logical" name="LVEL"> F  </i>
   <i name="CSHIFT">      0.10000000</i>
   <i name="OMEGAMAX">     -1.00000000</i>
   <i name="DEG_THRESHOLD">      0.00200000</i>
   <i name="RTIME">     -0.10000000</i>
   <i name="WPLASMAI">      0.00000000</i>
   <v name="DFIELD">      0.00000000      0.00000000      0.00000000</v>
   <v name="WPLASMA">      0.00000000      0.00000000      0.00000000      0.00000000      0.00000000      0.00000000      0.00000000      0.00000000      0.00000000</v>
  </separator>
  <separator name="orbital magnetization" >
   <i type="logical" name="NUCIND"> F  </i>
   <v name="MAGPOS">      0.00000000      0.00000000      0.00000000</v>
   <i type="logical" name="LNICSALL"> T  </i>
   <i type="logical" name="ORBITALMAG"> F  </i>
   <i type="logical" name="LMAGBLOCH"> F  </i>
   <i type="logical" name="LCHIMAG"> F  </i>
   <i type="logical" name="LGAUGE"> T  </i>
   <i type="int" name="MAGATOM">     0</i>
   <v name="MAGDIPOL">      0.00000000      0.00000000      0.00000000</v>
   <v name="AVECCONST">      0.00000000      0.00000000      0.00000000</v>
  </separator>
  <separator name="response functions" >
   <i type="logical" name="LALL_IN_ONE"> F  </i>
   <i type="int" name="IALL_IN_ONE">    -1</i>
   <i type="int" name="NBANDS_WAVE">    -1</i>
   <i type="logical" name="LFINITE_TEMPERATURE"> F  </i>
   <i type="logical" name="LADDER"> F  </i>
   <i type="logical" name="LRPAFORCE"> F  </i>
   <i type="logical" name="LFXC"> F  </i>
   <i type="logical" name="LHARTREE"> T  </i>
   <i type="int" name="IBSE">     0</i>
   <v type="int" name="KPOINT">    -1     0     0     0</v>
   <i type="logical" name="LTCTC"> F  </i>
   <i type="logical" name="LTCTE"> F  </i>
   <i type="logical" name="LTETE"> F  </i>
   <i type="logical" name="LTRIPLET"> F  </i>
   <i type="logical" name="LFXCEPS"> F  </i>
   <i type="logical" name="LFXHEG"> F  </i>
   <i type="int" name="NATURALO">     2</i>
   <i type="logical" name="LHOLEGF"> F  </i>
   <i type="logical" name="L2ORDER"> F  </i>
   <i type="logical" name="LDMP1"> F  </i>
   <i type="logical" name="LMP2LT"> F  </i>
   <i type="logical" name="LSMP2LT"> F  </i>
   <i type="logical" name="LGWLF"> F  </i>
   <i name="ENCUTGW">     -1.60000002</i>
   <i name="ENCUTGWSOFT">     -1.60000002</i>
   <i name="ENCUTLF">     -1.00000000</i>
   <i type="logical" name="LESF_SPLINES"> F  </i>
   <i type="int" name="LMAXMP2">    -1</i>
   <i name="SCISSOR">      0.00000000</i>
   <i type="int" name="NOMEGA">     0</i>
   <i type="int" name="NOMEGAR">     0</i>
   <i type="int" name="NBANDSGW">    -1</i>
   <i type="int" name="NBANDSO">    -1</i>
   <i type="int" name="NBANDSV">    -1</i>
   <i type="int" name="NELMGW">     1</i>
   <i type="int" name="NELMHF">     1</i>
   <i type="int" name="DIM">     3</i>
   <i type="int" name="IESPILON">     4</i>
   <i type="int" name="ANTIRES">     0</i>
   <i name="OMEGAMAX">    -30.00000000</i>
   <i name="OMEGAMIN">    -30.00000000</i>
   <i name="OMEGATL">   -200.00000000</i>
   <i type="int" name="OMEGAGRID">     0</i>
   <i name="CSHIFT">     -0.10000000</i>
   <i type="logical" name="LSELFENERGY"> F  </i>
   <i type="logical" name="LSPECTRAL"> F  </i>
   <i type="logical" name="LSPECTRALGW"> F  </i>
   <i type="logical" name="LSINGLES"> F  </i>
   <i type="logical" name="LFERMIGW"> F  </i>
   <i type="logical" name="ODDONLYGW"> F  </i>
   <i type="logical" name="EVENONLYGW"> F  </i>
   <i type="int" name="NKREDLFX">     1</i>
   <i type="int" name="NKREDLFY">     1</i>
   <i type="int" name="NKREDLFZ">     1</i>
   <i type="int" name="MAXMEM">  2800</i>
   <i type="int" name="TELESCOPE">     0</i>
   <i type="int" name="NTAUPAR">    -1</i>
   <i type="int" name="NOMEGAPAR">    -1</i>
   <i name="DAMP_NEWTON">      0.80000001</i>
   <i name="LAMBDA">      1.00000000</i>
  </separator>
  <separator name="External order field" >
   <i name="OFIELD_KAPPA">      0.00000000</i>
   <v name="OFIELD_K">      0.00000000      0.00000000      0.00000000</v>
   <i name="OFIELD_Q6_NEAR">      0.00000000</i>
   <i name="OFIELD_Q6_FAR">      0.00000000</i>
   <i name="OFIELD_A">      0.00000000</i>
  </separator>
  <separator name="optional k-points parameters" >
   <i type="int" name="KPOINTS_OPT_MODE">     1</i>
   <i type="logical" name="LKPOINTS_OPT"> F  </i>
  </separator>
 </parameters>
 <atominfo>
  <atoms>      18 </atoms>
  <types>       1 </types>
  <array name="atoms" >
   <dimension dim="1">ion</dimension>
   <field type="string">element</field>
   <field type="int">atomtype</field>
   <set>
    <rc><c>C </c><c>   1</c></rc>
    <rc><c>C </c><c>   1</c></rc>
    <rc><c>C </c><c>   1</c></rc>
    <rc><c>C </c><c>   1</c></rc>
    <rc><c>C </c><c>   1</c></rc>
    <rc><c>C </c><c>   1</c></rc>
    <rc><c>C </c><c>   1</c></rc>
    <rc><c>C </c><c>   1</c></rc>
    <rc><c>C </c><c>   1</c></rc>
    <rc><c>C </c><c>   1</c></rc>
    <rc><c>C </c><c>   1</c></rc>
    <rc><c>C </c><c>   1</c></rc>
    <rc><c>C </c><c>   1</c></rc>
    <rc><c>C </c><c>   1</c></rc>
    <rc><c>C </c><c>   1</c></rc>
    <rc><c>C </c><c>   1</c></rc>
    <rc><c>C </c><c>   1</c></rc>
    <rc><c>C </c><c>   1</c></rc>
   </set>
  </array>
  <array name="atomtypes" >
   <dimension dim="1">type</dimension>
   <field type="int">atomspertype</field>
   <field type="string">element</field>
   <field>mass</field>
   <field>valence</field>
   <field type="string">pseudopotential</field>
   <set>
    <rc><c>  18</c><c>C </c><c>     12.01100000</c><c>      4.00000000</c><c>  PAW_PBE C 08Apr2002                   </c></rc>
   </set>
  </array>
 </atominfo>
 <structure name="initialpos" >
  <crystal>
   <varray name="basis" >
    <v>       7.40170591       0.00000000       0.00000000 </v>
    <v>      -3.70085295       6.41006527       0.00000000 </v>
    <v>       0.00000000       0.00000000      20.00000000 </v>
   </varray>
   <i name="volume">    948.90835877 </i>
   <varray name="rec_basis" >
    <v>       0.13510399       0.07800233       0.00000000 </v>
    <v>       0.00000000       0.15600465       0.00000000 </v>
    <v>       0.00000000       0.00000000       0.05000000 </v>
   </varray>
  </crystal>
  <varray name="positions" >
   <v>       0.00000000       0.00000000       0.49950000 </v>
   <v>       0.33333333       0.00000000       0.50000000 </v>
   <v>       0.66666667       0.00000000       0.50000000 </v>
   <v>       0.00000000       0.33333333       0.50000000 </v>
   <v>       0.33333333       0.33333333       0.50000000 </v>
   <v>       0.66666667       0.33333333       0.50000000 </v>
   <v>       0.00000000       0.66666667       0.50000000 </v>
   <v>       0.33333333       0.66666667       0.50000000 </v>
   <v>       0.66666667       0.66666667       0.50000000 </v>
   <v>       0.22087118       0.11111111       0.50000000 </v>
   <v>       0.55555556       0.11111111       0.50000000 </v>
   <v>       0.88888889       0.11111111       0.50000000 </v>
   <v>       0.22222222       0.44444444       0.50000000 </v>
   <v>       0.55555556       0.44444444       0.50000000 </v>
   <v>       0.88888889       0.44444444       0.50000000 </v>
   <v>       0.22222222       0.77777778       0.50000000 </v>
   <v>       0.55555556       0.77777778       0.50000000 </v>
   <v>       0.88888889       0.77777778       0.50000000 </v>
  </varray>
 </structure>
 <calculation>
  <scstep>
   <time name="dav">    5.94    6.17</time>
   <time name="total">    6.03    6.26</time>
   <energy>
    <i name="alphaZ">     28.04858418 </i>
    <i name="ewald">  11638.84052327 </i>
    <i name="hartreedc"> -13553.15828148 </i>
    <i name="XCdc">    237.17731730 </i>
    <i name="pawpsdc">   1953.39683484 </i>
    <i name="pawaedc">  -1963.64613940 </i>
    <i name="eentropy">     -0.00840675 </i>
    <i name="bandstr">   -257.76236325 </i>
    <i name="atom">   2648.70517965 </i>
    <i name="e_fr_energy">    731.59324837 </i>
    <i name="e_wo_entrp">    731.60165512 </i>
    <i name="e_0_energy">    731.59745174 </i>
   </energy>
  </scstep>
  <scstep>
   <time name="dav">    7.92    7.02</time>
   <time name="total">    7.92    7.02</time>
   <energy>
    <i name="e_fr_energy">    -23.90316564 </i>
    <i name="e_wo_entrp">    -23.90283195 </i>
    <i name="e_0_energy">    -23.90299879 </i>
   </energy>
  </scstep>
  <scstep>
   <time name="dav">    6.42    6.66</time>
   <time name="total">    6.42    6.66</time>
   <energy>
    <i name="e_fr_energy">   -172.27408482 </i>
    <i name="e_wo_entrp">   -172.27295291 </i>
    <i name="e_0_energy">   -172.27351886 </i>
   </energy>
  </scstep>
  <scstep>
   <time name="dav">    6.28    6.52</time>
   <time name="total">    6.28    6.52</time>
   <energy>
    <i name="e_fr_energy">   -177.34789058 </i>
    <i name="e_wo_entrp">   -177.34576152 </i>
    <i name="e_0_energy">   -177.34682605 </i>
   </energy>
  </scstep>
  <scstep>
   <time name="dav">    7.22    7.50</time>
   <time name="total">    7.49    7.78</time>
   <energy>
    <i name="e_fr_energy">   -177.48539887 </i>
    <i name="e_wo_entrp">   -177.48324312 </i>
    <i name="e_0_energy">   -177.48432099 </i>
   </energy>
  </scstep>
  <scstep>
   <time name="dav">    5.90    6.13</time>
   <time name="total">    6.25    6.48</time>
   <energy>
    <i name="e_fr_energy">   -169.31809044 </i>
    <i name="e_wo_entrp">   -169.31589840 </i>
    <i name="e_0_energy">   -169.31699442 </i>
   </energy>
  </scstep>
  <scstep>
   <time name="dav">    5.89    4.93</time>
   <time name="total">    6.24    5.29</time>
   <energy>
    <i name="e_fr_energy">   -166.15027797 </i>
    <i name="e_wo_entrp">   -166.14807036 </i>
    <i name="e_0_energy">   -166.14917417 </i>
   </energy>
  </scstep>
  <scstep>
   <time name="dav">    6.22    6.46</time>
   <time name="total">    6.57    6.82</time>
   <energy>
    <i name="e_fr_energy">   -166.08760114 </i>
    <i name="e_wo_entrp">   -166.08539975 </i>
    <i name="e_0_energy">   -166.08650044 </i>
   </energy>
  </scstep>
  <scstep>
   <time name="dav">    6.56    6.81</time>
   <time name="total">    6.90    7.17</time>
   <energy>
    <i name="e_fr_energy">   -166.07486582 </i>
    <i name="e_wo_entrp">   -166.07266248 </i>
    <i name="e_0_energy">   -166.07376415 </i>
   </energy>
  </scstep>
  <scstep>
   <time name="dav">    5.76    5.98</time>
   <time name="total">    6.10    6.33</time>
   <energy>
    <i name="e_fr_energy">   -166.05624213 </i>
    <i name="e_wo_entrp">   -166.05403750 </i>
    <i name="e_0_energy">   -166.05513981 </i>
   </energy>
  </scstep>
  <scstep>
   <time name="dav">    5.79    4.83</time>
   <time name="total">    6.14    5.19</time>
   <energy>
    <i name="e_fr_energy">   -166.05988045 </i>
    <i name="e_wo_entrp">   -166.05767692 </i>
    <i name="e_0_energy">   -166.05877868 </i>
   </energy>
  </scstep>
  <scstep>
   <time name="dav">    5.61    5.82</time>
   <time name="total">    5.95    6.17</time>
   <energy>
    <i name="e_fr_energy">   -166.06462229 </i>
    <i name="e_wo_entrp">   -166.06241885 </i>
    <i name="e_0_energy">   -166.06352057 </i>
   </energy>
  </scstep>
  <scstep>
   <time name="dav">    5.95    6.18</time>
   <time name="total">    6.30    6.54</time>
   <energy>
    <i name="e_fr_energy">   -166.06877689 </i>
    <i name="e_wo_entrp">   -166.06657299 </i>
    <i name="e_0_energy">   -166.06767494 </i>
   </energy>
  </scstep>
  <scstep>
   <time name="dav">    5.59    5.81</time>
   <time name="total">    5.94    6.17</time>
   <energy>
    <i name="e_fr_energy">   -166.07255806 </i>
    <i name="e_wo_entrp">   -166.07035415 </i>
    <i name="e_0_energy">   -166.07145610 </i>
   </energy>
  </scstep>
  <scstep>
   <time name="dav">    5.92    6.15</time>
   <time name="total">    6.27    6.51</time>
   <energy>
    <i name="e_fr_energy">   -166.07373647 </i>
    <i name="e_wo_entrp">   -166.07153258 </i>
    <i name="e_0_energy">   -166.07263453 </i>
   </energy>
  </scstep>
  <scstep>
   <time name="dav">    6.03    6.26</time>
   <time name="total">    6.38    6.63</time>
   <energy>
    <i name="e_fr_energy">   -166.07390712 </i>
    <i name="e_wo_entrp">   -166.07170326 </i>
    <i name="e_0_energy">   -166.07280519 </i>
   </energy>
  </scstep>
  <scstep>
   <time name="dav">    5.31    4.28</time>
   <time name="total">    5.65    4.64</time>
   <energy>
    <i name="e_fr_energy">   -166.07411149 </i>
    <i name="e_wo_entrp">   -166.07190770 </i>
    <i name="e_0_energy">   -166.07300959 </i>
   </energy>
  </scstep>
  <scstep>
   <time name="dav">    5.09    5.27</time>
   <time name="total">    5.43    5.63</time>
   <energy>
    <i name="e_fr_energy">   -166.07415258 </i>
    <i name="e_wo_entrp">   -166.07194873 </i>
    <i name="e_0_energy">   -166.07305065 </i>
   </energy>
  </scstep>
  <scstep>
   <time name="dav">    5.06    5.28</time>
   <time name="total">    5.41    5.64</time>
   <energy>
    <i name="e_fr_energy">   -166.07419103 </i>
    <i name="e_wo_entrp">   -166.07198716 </i>
    <i name="e_0_energy">   -166.07308909 </i>
   </energy>
  </scstep>
  <scstep>
   <time name="dav">    4.32    4.50</time>
   <time name="total">    4.66    4.86</time>
   <energy>
    <i name="e_fr_energy">   -166.07421086 </i>
    <i name="e_wo_entrp">   -166.07200702 </i>
    <i name="e_0_energy">   -166.07310894 </i>
   </energy>
  </scstep>
  <scstep>
   <time name="dav">    4.01    4.17</time>
   <time name="total">    4.36    4.54</time>
   <energy>
    <i name="e_fr_energy">   -166.07421974 </i>
    <i name="e_wo_entrp">   -166.07201590 </i>
    <i name="e_0_energy">   -166.07311782 </i>
   </energy>
  </scstep>
  <scstep>
   <time name="dav">    4.04    4.19</time>
   <time name="total">    4.41    4.56</time>
   <energy>
    <i name="e_fr_energy">   -166.07422225 </i>
    <i name="e_wo_entrp">   -166.07201841 </i>
    <i name="e_0_energy">   -166.07312033 </i>
   </energy>
  </scstep>
  <scstep>
   <time name="dav">    4.11    3.06</time>
   <time name="total">    4.20    3.15</time>
   <energy>
    <i name="alphaZ">     28.04858418 </i>
    <i name="ewald">  11638.84052327 </i>
    <i name="hartreedc"> -13861.49357113 </i>
    <i name="XCdc">    247.81378154 </i>
    <i name="pawpsdc">   7452.80401559 </i>
    <i name="pawaedc">  -7465.06735151 </i>
    <i name="eentropy">     -0.00220384 </i>
    <i name="bandstr">   -855.72318027 </i>
    <i name="atom">   2648.70517965 </i>
    <i name="e_fr_energy">   -166.07422251 </i>
    <i name="e_wo_entrp">   -166.07201867 </i>
    <i name="e_0_energy">   -166.07312059 </i>
   </energy>
  </scstep>
  <structure>
   <crystal>
    <varray name="basis" >
     <v>       7.40170591       0.00000000       0.00000000 </v>
     <v>      -3.70085295       6.41006527       0.00000000 </v>
     <v>       0.00000000       0.00000000      20.00000000 </v>
    </varray>
    <i name="volume">    948.90835877 </i>
    <varray name="rec_basis" >
     <v>       0.13510399       0.07800233       0.00000000 </v>
     <v>       0.00000000       0.15600465       0.00000000 </v>
     <v>       0.00000000       0.00000000       0.05000000 </v>
    </varray>
   </crystal>
   <varray name="positions" >
    <v>       0.00000000       0.00000000       0.49950000 </v>
    <v>       0.33333333       0.00000000       0.50000000 </v>
    <v>       0.66666667       0.00000000       0.50000000 </v>
    <v>       0.00000000       0.33333333       0.50000000 </v>
    <v>       0.33333333       0.33333333       0.50000000 </v>
    <v>       0.66666667       0.33333333       0.50000000 </v>
    <v>       0.00000000       0.66666667       0.50000000 </v>
    <v>       0.33333333       0.66666667       0.50000000 </v>
    <v>       0.66666667       0.66666667       0.50000000 </v>
    <v>       0.22087118       0.11111111       0.50000000 </v>
    <v>       0.55555556       0.11111111       0.50000000 </v>
    <v>       0.88888889       0.11111111       0.50000000 </v>
    <v>       0.22222222       0.44444444       0.50000000 </v>
    <v>       0.55555556       0.44444444       0.50000000 </v>
    <v>       0.88888889       0.44444444       0.50000000 </v>
    <v>       0.22222222       0.77777778       0.50000000 </v>
    <v>       0.55555556       0.77777778       0.50000000 </v>
    <v>       0.88888889       0.77777778       0.50000000 </v>
   </varray>
  </structure>
  <varray name="forces" >
   <v>      -0.20796708      -0.05844668       0.14277875 </v>
   <v>      -0.19710148       0.05098355       0.00478708 </v>
   <v>       0.00097831       0.00016612       0.00477821 </v>
   <v>       0.01795642      -0.02318975       0.00482297 </v>
   <v>      -0.10783091      -0.00024708       0.00479752 </v>
   <v>       0.01835856       0.02293657      -0.00218300 </v>
   <v>      -0.02179094       0.00013042       0.00481572 </v>
   <v>       0.01899173       0.01051825      -0.00218851 </v>
   <v>       0.01899877      -0.01028585       0.00473200 </v>
   <v>       0.59868047       0.00836329      -0.06049454 </v>
   <v>      -0.04982137      -0.01347768       0.00895191 </v>
   <v>      -0.05041308       0.01326532      -0.06184007 </v>
   <v>       0.00578366       0.01863006      -0.00345527 </v>
   <v>       0.00532517      -0.01891443       0.00907706 </v>
   <v>      -0.03062686      -0.00026673       0.00910019 </v>
   <v>       0.00554621       0.04555403      -0.00335671 </v>
   <v>      -0.03063245      -0.00025496      -0.00345195 </v>
   <v>       0.00556487      -0.04546445      -0.06167137 </v>
  </varray>
  <varray name="stress" >
   <v>      -0.15252460       0.06549366       0.00350988 </v>
   <v>       0.06549366      -0.15950265       0.00098220 </v>
   <v>       0.00350987       0.00098219      -0.56962189 </v>
  </varray>
  <energy>
   <i name="e_fr_energy">   -166.07422251 </i>
   <i name="e_wo_entrp">   -166.07201867 </i>
   <i name="e_0_energy">   -166.07312059 </i>
  </energy>
  <time name="totalsc">  142.47  141.93</time>
  <eigenvalues>
   <array>
    <dimension dim="1">band</dimension>
    <dimension dim="2">kpoint</dimension>
    <dimension dim="3">spin</dimension>
    <field>eigene</field>
    <field>occ</field>
    <set>
     <set comment="spin 1">
      <set comment="kpoint 1">
       <r>  -22.2559    1.0000 </r>
       <r>  -19.6943    1.0000 </r>
       <r>  -19.6757    1.0000 </r>
       <r>  -19.6733    1.0000 </r>
       <r>  -19.6733    1.0000 </r>
       <r>  -19.6709    1.0000 </r>
       <r>  -19.6526    1.0000 </r>
       <r>  -15.3556    1.0000 </r>
       <r>  -15.3410    1.0000 </r>
       <r>  -15.3404    1.0000 </r>
       <r>  -15.3261    1.0000 </r>
       <r>  -13.2920    1.0000 </r>
       <r>  -13.2873    1.0000 </r>
       <r>  -12.3973    1.0000 </r>
       <r>  -12.3827    1.0000 </r>
       <r>  -12.3747    1.0000 </r>
       <r>  -12.3746    1.0000 </r>
       <r>  -12.3664    1.0000 </r>
       <r>  -12.3519    1.0000 </r>
       <r>  -10.3599    1.0000 </r>
       <r>   -8.5505    1.0000 </r>
       <r>   -8.5273    1.0000 </r>
       <r>   -8.5236    1.0000 </r>
       <r>   -8.5235    1.0000 </r>
       <r>   -8.5199    1.0000 </r>
       <r>   -8.4963    1.0000 </r>
       <r>   -7.3887    1.0000 </r>
       <r>   -7.3720    1.0000 </r>
       <r>   -7.3708    1.0000 </r>
       <r>   -7.3708    1.0000 </r>
       <r>   -7.3697    1.0000 </r>
       <r>   -7.3531    1.0000 </r>
       <r>   -5.8008    1.0000 </r>
       <r>   -5.7678    1.0000 </r>
       <r>   -2.7703    0.6645 </r>
       <r>   -2.7553    0.5000 </r>
       <r>   -2.7552    0.4995 </r>
       <r>   -2.7403    0.3360 </r>
       <r>    0.5196    0.0000 </r>
       <r>    1.3121    0.0000 </r>
       <r>    1.6361    0.0000 </r>
       <r>    2.1205    0.0000 </r>
       <r>    2.1427    0.0000 </r>
       <r>    2.1442    0.0000 </r>
       <r>    2.1455    0.0000 </r>
       <r>    2.1480    0.0000 </r>
      </set>
      <set comment="kpoint 2">
       <r>  -22.2024    1.0000 </r>
       <r>  -20.3493    1.0000 </r>
       <r>  -19.9881    1.0000 </r>
       <r>  -19.9801    1.0000 </r>
       <r>  -19.2665    1.0000 </r>
       <r>  -19.2582    1.0000 </r>
       <r>  -18.9062    1.0000 </r>
       <r>  -16.0007    1.0000 </r>
       <r>  -15.9906    1.0000 </r>
       <r>  -14.9176    1.0000 </r>
       <r>  -14.9075    1.0000 </r>
       <r>  -13.6023    1.0000 </r>
       <r>  -12.9754    1.0000 </r>
       <r>  -12.9675    1.0000 </r>
       <r>  -12.9573    1.0000 </r>
       <r>  -12.9492    1.0000 </r>
       <r>  -11.7369    1.0000 </r>
       <r>  -11.7266    1.0000 </r>
       <r>  -11.1235    1.0000 </r>
       <r>  -10.2959    1.0000 </r>
       <r>   -8.8744    1.0000 </r>
       <r>   -8.8603    1.0000 </r>
       <r>   -8.8215    1.0000 </r>
       <r>   -8.5210    1.0000 </r>
       <r>   -8.5064    1.0000 </r>
       <r>   -8.1260    1.0000 </r>
       <r>   -8.1235    1.0000 </r>
       <r>   -7.7180    1.0000 </r>
       <r>   -7.7106    1.0000 </r>
       <r>   -6.9272    1.0000 </r>
       <r>   -6.9199    1.0000 </r>
       <r>   -6.5542    1.0000 </r>
       <r>   -6.0186    1.0000 </r>
       <r>   -5.8857    1.0000 </r>
       <r>   -3.5306    1.0000 </r>
       <r>   -3.5232    1.0000 </r>
       <r>   -2.0084    0.0000 </r>
       <r>   -2.0002    0.0000 </r>
       <r>    0.5921    0.0000 </r>
       <r>    0.8682    0.0000 </r>
       <r>    1.3857    0.0000 </r>
       <r>    1.4708    0.0000 </r>
       <r>    1.4809    0.0000 </r>
       <r>    1.7107    0.0000 </r>
       <r>    2.6299    0.0000 </r>
       <r>    2.7591    0.0000 </r>
      </set>
      <set comment="kpoint 3">
       <r>  -22.2023    1.0000 </r>
       <r>  -20.3491    1.0000 </r>
       <r>  -19.9920    1.0000 </r>
       <r>  -19.9764    1.0000 </r>
       <r>  -19.2704    1.0000 </r>
       <r>  -19.2546    1.0000 </r>
       <r>  -18.9060    1.0000 </r>
       <r>  -16.0028    1.0000 </r>
       <r>  -15.9878    1.0000 </r>
       <r>  -14.9203    1.0000 </r>
       <r>  -14.9061    1.0000 </r>
       <r>  -13.5978    1.0000 </r>
       <r>  -12.9770    1.0000 </r>
       <r>  -12.9655    1.0000 </r>
       <r>  -12.9603    1.0000 </r>
       <r>  -12.9498    1.0000 </r>
       <r>  -11.7422    1.0000 </r>
       <r>  -11.7282    1.0000 </r>
       <r>  -11.1173    1.0000 </r>
       <r>  -10.2959    1.0000 </r>
       <r>   -8.8729    1.0000 </r>
       <r>   -8.8577    1.0000 </r>
       <r>   -8.8263    1.0000 </r>
       <r>   -8.5165    1.0000 </r>
       <r>   -8.5023    1.0000 </r>
       <r>   -8.1313    1.0000 </r>
       <r>   -8.1270    1.0000 </r>
       <r>   -7.7202    1.0000 </r>
       <r>   -7.7066    1.0000 </r>
       <r>   -6.9294    1.0000 </r>
       <r>   -6.9161    1.0000 </r>
       <r>   -6.5569    1.0000 </r>
       <r>   -6.0069    1.0000 </r>
       <r>   -5.8975    1.0000 </r>
       <r>   -3.5337    1.0000 </r>
       <r>   -3.5196    1.0000 </r>
       <r>   -2.0127    0.0000 </r>
       <r>   -1.9966    0.0000 </r>
       <r>    0.5921    0.0000 </r>
       <r>    0.8749    0.0000 </r>
       <r>    1.3857    0.0000 </r>
       <r>    1.4638    0.0000 </r>
       <r>    1.4838    0.0000 </r>
       <r>    1.7107    0.0000 </r>
       <r>    2.6299    0.0000 </r>
       <r>    2.7514    0.0000 </r>
      </set>
      <set comment="kpoint 4">
       <r>  -22.2023    1.0000 </r>
       <r>  -20.3489    1.0000 </r>
       <r>  -19.9885    1.0000 </r>
       <r>  -19.9804    1.0000 </r>
       <r>  -19.2666    1.0000 </r>
       <r>  -19.2583    1.0000 </r>
       <r>  -18.9058    1.0000 </r>
       <r>  -16.0001    1.0000 </r>
       <r>  -15.9898    1.0000 </r>
       <r>  -14.9191    1.0000 </r>
       <r>  -14.9088    1.0000 </r>
       <r>  -13.5929    1.0000 </r>
       <r>  -12.9795    1.0000 </r>
       <r>  -12.9710    1.0000 </r>
       <r>  -12.9552    1.0000 </r>
       <r>  -12.9507    1.0000 </r>
       <r>  -11.7435    1.0000 </r>
       <r>  -11.7334    1.0000 </r>
       <r>  -11.1114    1.0000 </r>
       <r>  -10.2959    1.0000 </r>
       <r>   -8.8684    1.0000 </r>
       <r>   -8.8545    1.0000 </r>
       <r>   -8.8346    1.0000 </r>
       <r>   -8.5127    1.0000 </r>
       <r>   -8.4970    1.0000 </r>
       <r>   -8.1395    1.0000 </r>
       <r>   -8.1281    1.0000 </r>
       <r>   -7.7163    1.0000 </r>
       <r>   -7.7088    1.0000 </r>
       <r>   -6.9256    1.0000 </r>
       <r>   -6.9182    1.0000 </r>
       <r>   -6.5596    1.0000 </r>
       <r>   -5.9916    1.0000 </r>
       <r>   -5.9130    1.0000 </r>
       <r>   -3.5302    1.0000 </r>
       <r>   -3.5226    1.0000 </r>
       <r>   -2.0091    0.0000 </r>
       <r>   -2.0007    0.0000 </r>
       <r>    0.5921    0.0000 </r>
       <r>    0.8815    0.0000 </r>
       <r>    1.3857    0.0000 </r>
       <r>    1.4664    0.0000 </r>
       <r>    1.4767    0.0000 </r>
       <r>    1.7107    0.0000 </r>
       <r>    2.6299    0.0000 </r>
       <r>    2.7530    0.0000 </r>
      </set>
      <set comment="kpoint 5">
       <r>  -22.0419    1.0000 </r>
       <r>  -20.9268    1.0000 </r>
       <r>  -20.1965    1.0000 </r>
       <r>  -20.1885    1.0000 </r>
       <r>  -18.7596    1.0000 </r>
       <r>  -18.7511    1.0000 </r>
       <r>  -18.0627    1.0000 </r>
       <r>  -16.7502    1.0000 </r>
       <r>  -16.7407    1.0000 </r>
       <r>  -14.7583    1.0000 </r>
       <r>  -14.6274    1.0000 </r>
       <r>  -14.6185    1.0000 </r>
       <r>  -13.5017    1.0000 </r>
       <r>  -13.4933    1.0000 </r>
       <r>  -12.1889    1.0000 </r>
       <r>  -12.1807    1.0000 </r>
       <r>  -11.0986    1.0000 </r>
       <r>  -11.0877    1.0000 </r>
       <r>  -10.1046    1.0000 </r>
       <r>   -9.8675    1.0000 </r>
       <r>   -9.5039    1.0000 </r>
       <r>   -9.4914    1.0000 </r>
       <r>   -9.0317    1.0000 </r>
       <r>   -8.7923    1.0000 </r>
       <r>   -8.7725    1.0000 </r>
       <r>   -8.7598    1.0000 </r>
       <r>   -7.9493    1.0000 </r>
       <r>   -7.9419    1.0000 </r>
       <r>   -7.6623    1.0000 </r>
       <r>   -6.6346    1.0000 </r>
       <r>   -6.3819    1.0000 </r>
       <r>   -6.3748    1.0000 </r>
       <r>   -6.2037    1.0000 </r>
       <r>   -5.7605    1.0000 </r>
       <r>   -4.3030    1.0000 </r>
       <r>   -4.2957    1.0000 </r>
       <r>   -1.2866    0.0000 </r>
       <r>   -1.2779    0.0000 </r>
       <r>   -0.2464    0.0000 </r>
       <r>    0.7837    0.0000 </r>
       <r>    0.7931    0.0000 </r>
       <r>    0.8125    0.0000 </r>
       <r>    1.6065    0.0000 </r>
       <r>    1.9341    0.0000 </r>
       <r>    2.3341    0.0000 </r>
       <r>    2.8512    0.0000 </r>
      </set>
      <set comment="kpoint 6">
       <r>  -22.0418    1.0000 </r>
       <r>  -20.9267    1.0000 </r>
       <r>  -20.2004    1.0000 </r>
       <r>  -20.1849    1.0000 </r>
       <r>  -18.7633    1.0000 </r>
       <r>  -18.7474    1.0000 </r>
       <r>  -18.0629    1.0000 </r>
       <r>  -16.7530    1.0000 </r>
       <r>  -16.7374    1.0000 </r>
       <r>  -14.7535    1.0000 </r>
       <r>  -14.6308    1.0000 </r>
       <r>  -14.6176    1.0000 </r>
       <r>  -13.5056    1.0000 </r>
       <r>  -13.4930    1.0000 </r>
       <r>  -12.1919    1.0000 </r>
       <r>  -12.1760    1.0000 </r>
       <r>  -11.1051    1.0000 </r>
       <r>  -11.0910    1.0000 </r>
       <r>  -10.1047    1.0000 </r>
       <r>   -9.8601    1.0000 </r>
       <r>   -9.5034    1.0000 </r>
       <r>   -9.4872    1.0000 </r>
       <r>   -9.0379    1.0000 </r>
       <r>   -8.7925    1.0000 </r>
       <r>   -8.7669    1.0000 </r>
       <r>   -8.7542    1.0000 </r>
       <r>   -7.9515    1.0000 </r>
       <r>   -7.9380    1.0000 </r>
       <r>   -7.6710    1.0000 </r>
       <r>   -6.6228    1.0000 </r>
       <r>   -6.3841    1.0000 </r>
       <r>   -6.3711    1.0000 </r>
       <r>   -6.2159    1.0000 </r>
       <r>   -5.7649    1.0000 </r>
       <r>   -4.3057    1.0000 </r>
       <r>   -4.2922    1.0000 </r>
       <r>   -1.2915    0.0000 </r>
       <r>   -1.2741    0.0000 </r>
       <r>   -0.2380    0.0000 </r>
       <r>    0.7776    0.0000 </r>
       <r>    0.7952    0.0000 </r>
       <r>    0.8130    0.0000 </r>
       <r>    1.6064    0.0000 </r>
       <r>    1.9341    0.0000 </r>
       <r>    2.3341    0.0000 </r>
       <r>    2.8512    0.0000 </r>
      </set>
      <set comment="kpoint 7">
       <r>  -22.0418    1.0000 </r>
       <r>  -20.9265    1.0000 </r>
       <r>  -20.1969    1.0000 </r>
       <r>  -20.1889    1.0000 </r>
       <r>  -18.7595    1.0000 </r>
       <r>  -18.7511    1.0000 </r>
       <r>  -18.0631    1.0000 </r>
       <r>  -16.7496    1.0000 </r>
       <r>  -16.7400    1.0000 </r>
       <r>  -14.7490    1.0000 </r>
       <r>  -14.6299    1.0000 </r>
       <r>  -14.6208    1.0000 </r>
       <r>  -13.5056    1.0000 </r>
       <r>  -13.4970    1.0000 </r>
       <r>  -12.1867    1.0000 </r>
       <r>  -12.1787    1.0000 </r>
       <r>  -11.1083    1.0000 </r>
       <r>  -11.0974    1.0000 </r>
       <r>  -10.1048    1.0000 </r>
       <r>   -9.8531    1.0000 </r>
       <r>   -9.4987    1.0000 </r>
       <r>   -9.4863    1.0000 </r>
       <r>   -9.0448    1.0000 </r>
       <r>   -8.7931    1.0000 </r>
       <r>   -8.7617    1.0000 </r>
       <r>   -8.7477    1.0000 </r>
       <r>   -7.9475    1.0000 </r>
       <r>   -7.9402    1.0000 </r>
       <r>   -7.6800    1.0000 </r>
       <r>   -6.6102    1.0000 </r>
       <r>   -6.3804    1.0000 </r>
       <r>   -6.3733    1.0000 </r>
       <r>   -6.2289    1.0000 </r>
       <r>   -5.7692    1.0000 </r>
       <r>   -4.3022    1.0000 </r>
       <r>   -4.2948    1.0000 </r>
       <r>   -1.2879    0.0000 </r>
       <r>   -1.2791    0.0000 </r>
       <r>   -0.2294    0.0000 </r>
       <r>    0.7807    0.0000 </r>
       <r>    0.7892    0.0000 </r>
       <r>    0.8124    0.0000 </r>
       <r>    1.6064    0.0000 </r>
       <r>    1.9341    0.0000 </r>
       <r>    2.3341    0.0000 </r>
       <r>    2.8512    0.0000 </r>
      </set>
      <set comment="kpoint 8">
       <r>  -21.7751    1.0000 </r>
       <r>  -21.4027    1.0000 </r>
       <r>  -20.3011    1.0000 </r>
       <r>  -20.2931    1.0000 </r>
       <r>  -18.1628    1.0000 </r>
       <r>  -18.1541    1.0000 </r>
       <r>  -17.4860    1.0000 </r>
       <r>  -17.4771    1.0000 </r>
       <r>  -17.2265    1.0000 </r>
       <r>  -15.7520    1.0000 </r>
       <r>  -14.3249    1.0000 </r>
       <r>  -14.3167    1.0000 </r>
       <r>  -13.9533    1.0000 </r>
       <r>  -13.9450    1.0000 </r>
       <r>  -11.2650    1.0000 </r>
       <r>  -11.2554    1.0000 </r>
       <r>  -10.5950    1.0000 </r>
       <r>  -10.5842    1.0000 </r>
       <r>  -10.3354    1.0000 </r>
       <r>  -10.3241    1.0000 </r>
       <r>   -9.7875    1.0000 </r>
       <r>   -9.3479    1.0000 </r>
       <r>   -9.1385    1.0000 </r>
       <r>   -9.1047    1.0000 </r>
       <r>   -9.0925    1.0000 </r>
       <r>   -8.6545    1.0000 </r>
       <r>   -8.0658    1.0000 </r>
       <r>   -8.0583    1.0000 </r>
       <r>   -7.5485    1.0000 </r>
       <r>   -7.1589    1.0000 </r>
       <r>   -6.6526    1.0000 </r>
       <r>   -5.7514    1.0000 </r>
       <r>   -5.7442    1.0000 </r>
       <r>   -5.1920    1.0000 </r>
       <r>   -5.0512    1.0000 </r>
       <r>   -5.0439    1.0000 </r>
       <r>   -0.9809    0.0000 </r>
       <r>   -0.5883    0.0000 </r>
       <r>   -0.5793    0.0000 </r>
       <r>    0.0985    0.0000 </r>
       <r>    0.1081    0.0000 </r>
       <r>    1.1736    0.0000 </r>
       <r>    1.6817    0.0000 </r>
       <r>    1.9739    0.0000 </r>
       <r>    2.3065    0.0000 </r>
       <r>    2.4868    0.0000 </r>
      </set>
      <set comment="kpoint 9">
       <r>  -21.7750    1.0000 </r>
       <r>  -21.4028    1.0000 </r>
       <r>  -20.3050    1.0000 </r>
       <r>  -20.2895    1.0000 </r>
       <r>  -18.1662    1.0000 </r>
       <r>  -18.1503    1.0000 </r>
       <r>  -17.4893    1.0000 </r>
       <r>  -17.4735    1.0000 </r>
       <r>  -17.2288    1.0000 </r>
       <r>  -15.7457    1.0000 </r>
       <r>  -14.3285    1.0000 </r>
       <r>  -14.3158    1.0000 </r>
       <r>  -13.9571    1.0000 </r>
       <r>  -13.9446    1.0000 </r>
       <r>  -11.2672    1.0000 </r>
       <r>  -11.2504    1.0000 </r>
       <r>  -10.6039    1.0000 </r>
       <r>  -10.5912    1.0000 </r>
       <r>  -10.3360    1.0000 </r>
       <r>  -10.3193    1.0000 </r>
       <r>   -9.7877    1.0000 </r>
       <r>   -9.3484    1.0000 </r>
       <r>   -9.1454    1.0000 </r>
       <r>   -9.0930    1.0000 </r>
       <r>   -9.0859    1.0000 </r>
       <r>   -8.6460    1.0000 </r>
       <r>   -8.0679    1.0000 </r>
       <r>   -8.0543    1.0000 </r>
       <r>   -7.5388    1.0000 </r>
       <r>   -7.1680    1.0000 </r>
       <r>   -6.6639    1.0000 </r>
       <r>   -5.7537    1.0000 </r>
       <r>   -5.7404    1.0000 </r>
       <r>   -5.1983    1.0000 </r>
       <r>   -5.0537    1.0000 </r>
       <r>   -5.0404    1.0000 </r>
       <r>   -0.9701    0.0000 </r>
       <r>   -0.5941    0.0000 </r>
       <r>   -0.5757    0.0000 </r>
       <r>    0.0924    0.0000 </r>
       <r>    0.1115    0.0000 </r>
       <r>    1.1735    0.0000 </r>
       <r>    1.6817    0.0000 </r>
       <r>    1.9739    0.0000 </r>
       <r>    2.3065    0.0000 </r>
       <r>    2.4868    0.0000 </r>
      </set>
      <set comment="kpoint 10">
       <r>  -21.7750    1.0000 </r>
       <r>  -21.4025    1.0000 </r>
       <r>  -20.3015    1.0000 </r>
       <r>  -20.2935    1.0000 </r>
       <r>  -18.1625    1.0000 </r>
       <r>  -18.1538    1.0000 </r>
       <r>  -17.4857    1.0000 </r>
       <r>  -17.4766    1.0000 </r>
       <r>  -17.2306    1.0000 </r>
       <r>  -15.7394    1.0000 </r>
       <r>  -14.3281    1.0000 </r>
       <r>  -14.3195    1.0000 </r>
       <r>  -13.9567    1.0000 </r>
       <r>  -13.9485    1.0000 </r>
       <r>  -11.2618    1.0000 </r>
       <r>  -11.2524    1.0000 </r>
       <r>  -10.6109    1.0000 </r>
       <r>  -10.5994    1.0000 </r>
       <r>  -10.3309    1.0000 </r>
       <r>  -10.3203    1.0000 </r>
       <r>   -9.7879    1.0000 </r>
       <r>   -9.3487    1.0000 </r>
       <r>   -9.1509    1.0000 </r>
       <r>   -9.0874    1.0000 </r>
       <r>   -9.0755    1.0000 </r>
       <r>   -8.6371    1.0000 </r>
       <r>   -8.0640    1.0000 </r>
       <r>   -8.0565    1.0000 </r>
       <r>   -7.5278    1.0000 </r>
       <r>   -7.1788    1.0000 </r>
       <r>   -6.6752    1.0000 </r>
       <r>   -5.7501    1.0000 </r>
       <r>   -5.7427    1.0000 </r>
       <r>   -5.2047    1.0000 </r>
       <r>   -5.0500    1.0000 </r>
       <r>   -5.0427    1.0000 </r>
       <r>   -0.9598    0.0000 </r>
       <r>   -0.5905    0.0000 </r>
       <r>   -0.5810    0.0000 </r>
       <r>    0.0958    0.0000 </r>
       <r>    0.1053    0.0000 </r>
       <r>    1.1735    0.0000 </r>
       <r>    1.6817    0.0000 </r>
       <r>    1.9738    0.0000 </r>
       <r>    2.3065    0.0000 </r>
       <r>    2.4867    0.0000 </r>
      </set>
      <set comment="kpoint 11">
       <r>  -22.0953    1.0000 </r>
       <r>  -20.6167    1.0000 </r>
       <r>  -20.6054    1.0000 </r>
       <r>  -19.5268    1.0000 </r>
       <r>  -19.5115    1.0000 </r>
       <r>  -18.4609    1.0000 </r>
       <r>  -18.4491    1.0000 </r>
       <r>  -16.7783    1.0000 </r>
       <r>  -16.1658    1.0000 </r>
       <r>  -15.2318    1.0000 </r>
       <r>  -14.2609    1.0000 </r>
       <r>  -14.1695    1.0000 </r>
       <r>  -14.1521    1.0000 </r>
       <r>  -12.5994    1.0000 </r>
       <r>  -12.3081    1.0000 </r>
       <r>  -12.2967    1.0000 </r>
       <r>  -12.2747    1.0000 </r>
       <r>  -10.5000    1.0000 </r>
       <r>  -10.4776    1.0000 </r>
       <r>  -10.1682    1.0000 </r>
       <r>   -9.1947    1.0000 </r>
       <r>   -9.1737    1.0000 </r>
       <r>   -9.1263    1.0000 </r>
       <r>   -9.1125    1.0000 </r>
       <r>   -8.4302    1.0000 </r>
       <r>   -8.4214    1.0000 </r>
       <r>   -8.0821    1.0000 </r>
       <r>   -8.0608    1.0000 </r>
       <r>   -7.1994    1.0000 </r>
       <r>   -7.1854    1.0000 </r>
       <r>   -6.4218    1.0000 </r>
       <r>   -6.1185    1.0000 </r>
       <r>   -6.1063    1.0000 </r>
       <r>   -6.0976    1.0000 </r>
       <r>   -4.2539    1.0000 </r>
       <r>   -3.9059    1.0000 </r>
       <r>   -1.7016    0.0000 </r>
       <r>   -1.2713    0.0000 </r>
       <r>    0.2620    0.0000 </r>
       <r>    0.2752    0.0000 </r>
       <r>    0.7377    0.0000 </r>
       <r>    1.5329    0.0000 </r>
       <r>    1.8596    0.0000 </r>
       <r>    2.0075    0.0000 </r>
       <r>    2.0258    0.0000 </r>
       <r>    2.7775    0.0000 </r>
      </set>
      <set comment="kpoint 12">
       <r>  -22.0953    1.0000 </r>
       <r>  -20.6166    1.0000 </r>
       <r>  -20.6053    1.0000 </r>
       <r>  -19.5273    1.0000 </r>
       <r>  -19.5118    1.0000 </r>
       <r>  -18.4607    1.0000 </r>
       <r>  -18.4489    1.0000 </r>
       <r>  -16.7793    1.0000 </r>
       <r>  -16.1575    1.0000 </r>
       <r>  -15.2490    1.0000 </r>
       <r>  -14.2497    1.0000 </r>
       <r>  -14.1650    1.0000 </r>
       <r>  -14.1469    1.0000 </r>
       <r>  -12.6104    1.0000 </r>
       <r>  -12.3182    1.0000 </r>
       <r>  -12.3073    1.0000 </r>
       <r>  -12.2653    1.0000 </r>
       <r>  -10.4953    1.0000 </r>
       <r>  -10.4730    1.0000 </r>
       <r>  -10.1683    1.0000 </r>
       <r>   -9.1795    1.0000 </r>
       <r>   -9.1625    1.0000 </r>
       <r>   -9.1334    1.0000 </r>
       <r>   -9.1181    1.0000 </r>
       <r>   -8.4307    1.0000 </r>
       <r>   -8.4218    1.0000 </r>
       <r>   -8.0881    1.0000 </r>
       <r>   -8.0669    1.0000 </r>
       <r>   -7.1963    1.0000 </r>
       <r>   -7.1821    1.0000 </r>
       <r>   -6.3952    1.0000 </r>
       <r>   -6.1452    1.0000 </r>
       <r>   -6.1107    1.0000 </r>
       <r>   -6.1016    1.0000 </r>
       <r>   -4.2618    1.0000 </r>
       <r>   -3.8927    1.0000 </r>
       <r>   -1.7194    0.0000 </r>
       <r>   -1.2591    0.0000 </r>
       <r>    0.2707    0.0000 </r>
       <r>    0.2838    0.0000 </r>
       <r>    0.7376    0.0000 </r>
       <r>    1.5329    0.0000 </r>
       <r>    1.8596    0.0000 </r>
       <r>    1.9975    0.0000 </r>
       <r>    2.0160    0.0000 </r>
       <r>    2.7775    0.0000 </r>
      </set>
      <set comment="kpoint 13">
       <r>  -22.0953    1.0000 </r>
       <r>  -20.6112    1.0000 </r>
       <r>  -20.6108    1.0000 </r>
       <r>  -19.5196    1.0000 </r>
       <r>  -19.5192    1.0000 </r>
       <r>  -18.4549    1.0000 </r>
       <r>  -18.4548    1.0000 </r>
       <r>  -16.7786    1.0000 </r>
       <r>  -16.1618    1.0000 </r>
       <r>  -15.2403    1.0000 </r>
       <r>  -14.2565    1.0000 </r>
       <r>  -14.1624    1.0000 </r>
       <r>  -14.1533    1.0000 </r>
       <r>  -12.6048    1.0000 </r>
       <r>  -12.3102    1.0000 </r>
       <r>  -12.3066    1.0000 </r>
       <r>  -12.2684    1.0000 </r>
       <r>  -10.4937    1.0000 </r>
       <r>  -10.4791    1.0000 </r>
       <r>  -10.1683    1.0000 </r>
       <r>   -9.1797    1.0000 </r>
       <r>   -9.1757    1.0000 </r>
       <r>   -9.1289    1.0000 </r>
       <r>   -9.1160    1.0000 </r>
       <r>   -8.4270    1.0000 </r>
       <r>   -8.4251    1.0000 </r>
       <r>   -8.0835    1.0000 </r>
       <r>   -8.0655    1.0000 </r>
       <r>   -7.1915    1.0000 </r>
       <r>   -7.1902    1.0000 </r>
       <r>   -6.4090    1.0000 </r>
       <r>   -6.1312    1.0000 </r>
       <r>   -6.1073    1.0000 </r>
       <r>   -6.1009    1.0000 </r>
       <r>   -4.2578    1.0000 </r>
       <r>   -3.8994    1.0000 </r>
       <r>   -1.7104    0.0000 </r>
       <r>   -1.2653    0.0000 </r>
       <r>    0.2659    0.0000 </r>
       <r>    0.2800    0.0000 </r>
       <r>    0.7377    0.0000 </r>
       <r>    1.5329    0.0000 </r>
       <r>    1.8596    0.0000 </r>
       <r>    2.0094    0.0000 </r>
       <r>    2.0139    0.0000 </r>
       <r>    2.7775    0.0000 </r>
      </set>
      <set comment="kpoint 14">
       <r>  -21.8817    1.0000 </r>
       <r>  -21.1380    1.0000 </r>
       <r>  -20.7686    1.0000 </r>
       <r>  -19.6742    1.0000 </r>
       <r>  -18.9579    1.0000 </r>
       <r>  -17.9169    1.0000 </r>
       <r>  -17.5940    1.0000 </r>
       <r>  -17.5717    1.0000 </r>
       <r>  -16.6733    1.0000 </r>
       <r>  -15.2615    1.0000 </r>
       <r>  -15.2411    1.0000 </r>
       <r>  -14.6351    1.0000 </r>
       <r>  -13.7315    1.0000 </r>
       <r>  -12.8170    1.0000 </r>
       <r>  -11.8941    1.0000 </r>
       <r>  -11.6750    1.0000 </r>
       <r>  -11.3940    1.0000 </r>
       <r>  -10.0451    1.0000 </r>
       <r>   -9.9167    1.0000 </r>
       <r>   -9.9101    1.0000 </r>
       <r>   -9.7105    1.0000 </r>
       <r>   -9.6385    1.0000 </r>
       <r>   -9.2787    1.0000 </r>
       <r>   -9.2681    1.0000 </r>
       <r>   -9.0371    1.0000 </r>
       <r>   -8.6072    1.0000 </r>
       <r>   -8.2635    1.0000 </r>
       <r>   -7.5710    1.0000 </r>
       <r>   -7.3557    1.0000 </r>
       <r>   -7.1561    1.0000 </r>
       <r>   -6.5693    1.0000 </r>
       <r>   -6.5317    1.0000 </r>
       <r>   -5.5810    1.0000 </r>
       <r>   -5.3800    1.0000 </r>
       <r>   -5.0715    1.0000 </r>
       <r>   -4.4384    1.0000 </r>
       <r>   -1.2881    0.0000 </r>
       <r>   -0.6953    0.0000 </r>
       <r>   -0.4296    0.0000 </r>
       <r>   -0.2996    0.0000 </r>
       <r>    1.0282    0.0000 </r>
       <r>    1.2277    0.0000 </r>
       <r>    1.8270    0.0000 </r>
       <r>    2.0446    0.0000 </r>
       <r>    2.1575    0.0000 </r>
       <r>    2.4084    0.0000 </r>
      </set>
      <set comment="kpoint 15">
       <r>  -21.8816    1.0000 </r>
       <r>  -21.1380    1.0000 </r>
       <r>  -20.7686    1.0000 </r>
       <r>  -19.6745    1.0000 </r>
       <r>  -18.9583    1.0000 </r>
       <r>  -17.9169    1.0000 </r>
       <r>  -17.5942    1.0000 </r>
       <r>  -17.5723    1.0000 </r>
       <r>  -16.6688    1.0000 </r>
       <r>  -15.2604    1.0000 </r>
       <r>  -15.2503    1.0000 </r>
       <r>  -14.6299    1.0000 </r>
       <r>  -13.7206    1.0000 </r>
       <r>  -12.8271    1.0000 </r>
       <r>  -11.9062    1.0000 </r>
       <r>  -11.6865    1.0000 </r>
       <r>  -11.3831    1.0000 </r>
       <r>  -10.0327    1.0000 </r>
       <r>   -9.9165    1.0000 </r>
       <r>   -9.9096    1.0000 </r>
       <r>   -9.7173    1.0000 </r>
       <r>   -9.6250    1.0000 </r>
       <r>   -9.2857    1.0000 </r>
       <r>   -9.2632    1.0000 </r>
       <r>   -9.0373    1.0000 </r>
       <r>   -8.6071    1.0000 </r>
       <r>   -8.2647    1.0000 </r>
       <r>   -7.5761    1.0000 </r>
       <r>   -7.3535    1.0000 </r>
       <r>   -7.1348    1.0000 </r>
       <r>   -6.5667    1.0000 </r>
       <r>   -6.5530    1.0000 </r>
       <r>   -5.5862    1.0000 </r>
       <r>   -5.3858    1.0000 </r>
       <r>   -5.0776    1.0000 </r>
       <r>   -4.4263    1.0000 </r>
       <r>   -1.3066    0.0000 </r>
       <r>   -0.6848    0.0000 </r>
       <r>   -0.4188    0.0000 </r>
       <r>   -0.2888    0.0000 </r>
       <r>    1.0281    0.0000 </r>
       <r>    1.2177    0.0000 </r>
       <r>    1.8270    0.0000 </r>
       <r>    2.0447    0.0000 </r>
       <r>    2.1575    0.0000 </r>
       <r>    2.4007    0.0000 </r>
      </set>
      <set comment="kpoint 16">
       <r>  -21.8816    1.0000 </r>
       <r>  -21.1377    1.0000 </r>
       <r>  -20.7690    1.0000 </r>
       <r>  -19.6746    1.0000 </r>
       <r>  -18.9580    1.0000 </r>
       <r>  -17.9164    1.0000 </r>
       <r>  -17.5962    1.0000 </r>
       <r>  -17.5707    1.0000 </r>
       <r>  -16.6712    1.0000 </r>
       <r>  -15.2518    1.0000 </r>
       <r>  -15.2465    1.0000 </r>
       <r>  -14.6395    1.0000 </r>
       <r>  -13.7297    1.0000 </r>
       <r>  -12.8192    1.0000 </r>
       <r>  -11.8962    1.0000 </r>
       <r>  -11.6864    1.0000 </r>
       <r>  -11.3890    1.0000 </r>
       <r>  -10.0422    1.0000 </r>
       <r>   -9.9263    1.0000 </r>
       <r>   -9.9135    1.0000 </r>
       <r>   -9.7053    1.0000 </r>
       <r>   -9.6258    1.0000 </r>
       <r>   -9.2891    1.0000 </r>
       <r>   -9.2547    1.0000 </r>
       <r>   -9.0380    1.0000 </r>
       <r>   -8.6060    1.0000 </r>
       <r>   -8.2481    1.0000 </r>
       <r>   -7.5896    1.0000 </r>
       <r>   -7.3532    1.0000 </r>
       <r>   -7.1368    1.0000 </r>
       <r>   -6.5698    1.0000 </r>
       <r>   -6.5513    1.0000 </r>
       <r>   -5.5777    1.0000 </r>
       <r>   -5.3909    1.0000 </r>
       <r>   -5.0729    1.0000 </r>
       <r>   -4.4337    1.0000 </r>
       <r>   -1.2952    0.0000 </r>
       <r>   -0.6762    0.0000 </r>
       <r>   -0.4273    0.0000 </r>
       <r>   -0.3050    0.0000 </r>
       <r>    1.0281    0.0000 </r>
       <r>    1.2276    0.0000 </r>
       <r>    1.8270    0.0000 </r>
       <r>    2.0446    0.0000 </r>
       <r>    2.1575    0.0000 </r>
       <r>    2.3990    0.0000 </r>
      </set>
      <set comment="kpoint 17">
       <r>  -21.8816    1.0000 </r>
       <r>  -21.1378    1.0000 </r>
       <r>  -20.7688    1.0000 </r>
       <r>  -19.6748    1.0000 </r>
       <r>  -18.9580    1.0000 </r>
       <r>  -17.9167    1.0000 </r>
       <r>  -17.5954    1.0000 </r>
       <r>  -17.5717    1.0000 </r>
       <r>  -16.6687    1.0000 </r>
       <r>  -15.2604    1.0000 </r>
       <r>  -15.2448    1.0000 </r>
       <r>  -14.6345    1.0000 </r>
       <r>  -13.7231    1.0000 </r>
       <r>  -12.8254    1.0000 </r>
       <r>  -11.9033    1.0000 </r>
       <r>  -11.6900    1.0000 </r>
       <r>  -11.3837    1.0000 </r>
       <r>  -10.0347    1.0000 </r>
       <r>   -9.9225    1.0000 </r>
       <r>   -9.9132    1.0000 </r>
       <r>   -9.7114    1.0000 </r>
       <r>   -9.6209    1.0000 </r>
       <r>   -9.2895    1.0000 </r>
       <r>   -9.2567    1.0000 </r>
       <r>   -9.0379    1.0000 </r>
       <r>   -8.6063    1.0000 </r>
       <r>   -8.2539    1.0000 </r>
       <r>   -7.5867    1.0000 </r>
       <r>   -7.3526    1.0000 </r>
       <r>   -7.1289    1.0000 </r>
       <r>   -6.5687    1.0000 </r>
       <r>   -6.5583    1.0000 </r>
       <r>   -5.5823    1.0000 </r>
       <r>   -5.3910    1.0000 </r>
       <r>   -5.0766    1.0000 </r>
       <r>   -4.4271    1.0000 </r>
       <r>   -1.3052    0.0000 </r>
       <r>   -0.6758    0.0000 </r>
       <r>   -0.4197    0.0000 </r>
       <r>   -0.2968    0.0000 </r>
       <r>    1.0281    0.0000 </r>
       <r>    1.2209    0.0000 </r>
       <r>    1.8270    0.0000 </r>
       <r>    2.0446    0.0000 </r>
       <r>    2.1575    0.0000 </r>
       <r>    2.3971    0.0000 </r>
      </set>
      <set comment="kpoint 18">
       <r>  -21.8817    1.0000 </r>
       <r>  -21.1379    1.0000 </r>
       <r>  -20.7688    1.0000 </r>
       <r>  -19.6743    1.0000 </r>
       <r>  -18.9578    1.0000 </r>
       <r>  -17.9165    1.0000 </r>
       <r>  -17.5943    1.0000 </r>
       <r>  -17.5722    1.0000 </r>
       <r>  -16.6734    1.0000 </r>
       <r>  -15.2556    1.0000 </r>
       <r>  -15.2412    1.0000 </r>
       <r>  -14.6397    1.0000 </r>
       <r>  -13.7338    1.0000 </r>
       <r>  -12.8150    1.0000 </r>
       <r>  -11.8919    1.0000 </r>
       <r>  -11.6787    1.0000 </r>
       <r>  -11.3944    1.0000 </r>
       <r>  -10.0479    1.0000 </r>
       <r>   -9.9226    1.0000 </r>
       <r>   -9.9129    1.0000 </r>
       <r>   -9.7045    1.0000 </r>
       <r>   -9.6344    1.0000 </r>
       <r>   -9.2849    1.0000 </r>
       <r>   -9.2590    1.0000 </r>
       <r>   -9.0377    1.0000 </r>
       <r>   -8.6064    1.0000 </r>
       <r>   -8.2531    1.0000 </r>
       <r>   -7.5814    1.0000 </r>
       <r>   -7.3547    1.0000 </r>
       <r>   -7.1504    1.0000 </r>
       <r>   -6.5705    1.0000 </r>
       <r>   -6.5375    1.0000 </r>
       <r>   -5.5770    1.0000 </r>
       <r>   -5.3852    1.0000 </r>
       <r>   -5.0706    1.0000 </r>
       <r>   -4.4393    1.0000 </r>
       <r>   -1.2867    0.0000 </r>
       <r>   -0.6858    0.0000 </r>
       <r>   -0.4323    0.0000 </r>
       <r>   -0.3065    0.0000 </r>
       <r>    1.0282    0.0000 </r>
       <r>    1.2310    0.0000 </r>
       <r>    1.8270    0.0000 </r>
       <r>    2.0446    0.0000 </r>
       <r>    2.1575    0.0000 </r>
       <r>    2.4068    0.0000 </r>
      </set>
      <set comment="kpoint 19">
       <r>  -21.8817    1.0000 </r>
       <r>  -21.1380    1.0000 </r>
       <r>  -20.7686    1.0000 </r>
       <r>  -19.6742    1.0000 </r>
       <r>  -18.9583    1.0000 </r>
       <r>  -17.9170    1.0000 </r>
       <r>  -17.5948    1.0000 </r>
       <r>  -17.5707    1.0000 </r>
       <r>  -16.6711    1.0000 </r>
       <r>  -15.2596    1.0000 </r>
       <r>  -15.2498    1.0000 </r>
       <r>  -14.6303    1.0000 </r>
       <r>  -13.7249    1.0000 </r>
       <r>  -12.8230    1.0000 </r>
       <r>  -11.9014    1.0000 </r>
       <r>  -11.6792    1.0000 </r>
       <r>  -11.3880    1.0000 </r>
       <r>  -10.0375    1.0000 </r>
       <r>   -9.9153    1.0000 </r>
       <r>   -9.9059    1.0000 </r>
       <r>   -9.7172    1.0000 </r>
       <r>   -9.6341    1.0000 </r>
       <r>   -9.2784    1.0000 </r>
       <r>   -9.2709    1.0000 </r>
       <r>   -9.0369    1.0000 </r>
       <r>   -8.6075    1.0000 </r>
       <r>   -8.2693    1.0000 </r>
       <r>   -7.5686    1.0000 </r>
       <r>   -7.3551    1.0000 </r>
       <r>   -7.1483    1.0000 </r>
       <r>   -6.5672    1.0000 </r>
       <r>   -6.5395    1.0000 </r>
       <r>   -5.5855    1.0000 </r>
       <r>   -5.3804    1.0000 </r>
       <r>   -5.0748    1.0000 </r>
       <r>   -4.4319    1.0000 </r>
       <r>   -1.2980    0.0000 </r>
       <r>   -0.6947    0.0000 </r>
       <r>   -0.4236    0.0000 </r>
       <r>   -0.2901    0.0000 </r>
       <r>    1.0282    0.0000 </r>
       <r>    1.2211    0.0000 </r>
       <r>    1.8270    0.0000 </r>
       <r>    2.0447    0.0000 </r>
       <r>    2.1575    0.0000 </r>
       <r>    2.4063    0.0000 </r>
      </set>
      <set comment="kpoint 20">
       <r>  -21.5677    1.0000 </r>
       <r>  -21.5566    1.0000 </r>
       <r>  -20.8213    1.0000 </r>
       <r>  -19.7260    1.0000 </r>
       <r>  -18.3143    1.0000 </r>
       <r>  -18.2980    1.0000 </r>
       <r>  -17.3165    1.0000 </r>
       <r>  -17.2996    1.0000 </r>
       <r>  -16.9833    1.0000 </r>
       <r>  -15.9469    1.0000 </r>
       <r>  -15.0137    1.0000 </r>
       <r>  -15.0008    1.0000 </r>
       <r>  -13.2885    1.0000 </r>
       <r>  -13.2747    1.0000 </r>
       <r>  -11.3502    1.0000 </r>
       <r>  -10.9945    1.0000 </r>
       <r>  -10.9821    1.0000 </r>
       <r>  -10.5081    1.0000 </r>
       <r>  -10.4967    1.0000 </r>
       <r>   -9.9142    1.0000 </r>
       <r>   -9.6257    1.0000 </r>
       <r>   -9.5400    1.0000 </r>
       <r>   -9.5311    1.0000 </r>
       <r>   -9.3295    1.0000 </r>
       <r>   -8.6678    1.0000 </r>
       <r>   -8.4294    1.0000 </r>
       <r>   -8.1442    1.0000 </r>
       <r>   -8.1230    1.0000 </r>
       <r>   -7.4104    1.0000 </r>
       <r>   -7.0573    1.0000 </r>
       <r>   -7.0288    1.0000 </r>
       <r>   -5.8625    1.0000 </r>
       <r>   -5.8486    1.0000 </r>
       <r>   -5.0567    1.0000 </r>
       <r>   -5.0210    1.0000 </r>
       <r>   -5.0068    1.0000 </r>
       <r>   -1.1004    0.0000 </r>
       <r>   -0.8267    0.0000 </r>
       <r>   -0.8132    0.0000 </r>
       <r>    0.4030    0.0000 </r>
       <r>    0.4169    0.0000 </r>
       <r>    1.4636    0.0000 </r>
       <r>    1.4648    0.0000 </r>
       <r>    2.2671    0.0000 </r>
       <r>    2.2676    0.0000 </r>
       <r>    2.4850    0.0000 </r>
      </set>
      <set comment="kpoint 21">
       <r>  -21.5622    1.0000 </r>
       <r>  -21.5620    1.0000 </r>
       <r>  -20.8214    1.0000 </r>
       <r>  -19.7262    1.0000 </r>
       <r>  -18.3063    1.0000 </r>
       <r>  -18.3059    1.0000 </r>
       <r>  -17.3084    1.0000 </r>
       <r>  -17.3067    1.0000 </r>
       <r>  -16.9870    1.0000 </r>
       <r>  -15.9391    1.0000 </r>
       <r>  -15.0151    1.0000 </r>
       <r>  -15.0040    1.0000 </r>
       <r>  -13.2883    1.0000 </r>
       <r>  -13.2755    1.0000 </r>
       <r>  -11.3584    1.0000 </r>
       <r>  -10.9954    1.0000 </r>
       <r>  -10.9805    1.0000 </r>
       <r>  -10.5060    1.0000 </r>
       <r>  -10.4939    1.0000 </r>
       <r>   -9.9056    1.0000 </r>
       <r>   -9.6348    1.0000 </r>
       <r>   -9.5360    1.0000 </r>
       <r>   -9.5357    1.0000 </r>
       <r>   -9.3358    1.0000 </r>
       <r>   -8.6672    1.0000 </r>
       <r>   -8.4185    1.0000 </r>
       <r>   -8.1292    1.0000 </r>
       <r>   -8.1206    1.0000 </r>
       <r>   -7.4091    1.0000 </r>
       <r>   -7.0575    1.0000 </r>
       <r>   -7.0481    1.0000 </r>
       <r>   -5.8587    1.0000 </r>
       <r>   -5.8528    1.0000 </r>
       <r>   -5.0636    1.0000 </r>
       <r>   -5.0176    1.0000 </r>
       <r>   -5.0064    1.0000 </r>
       <r>   -1.0893    0.0000 </r>
       <r>   -0.8329    0.0000 </r>
       <r>   -0.8136    0.0000 </r>
       <r>    0.4037    0.0000 </r>
       <r>    0.4175    0.0000 </r>
       <r>    1.4641    0.0000 </r>
       <r>    1.4642    0.0000 </r>
       <r>    2.2673    0.0000 </r>
       <r>    2.2679    0.0000 </r>
       <r>    2.6042    0.0000 </r>
      </set>
      <set comment="kpoint 22">
       <r>  -21.5675    1.0000 </r>
       <r>  -21.5564    1.0000 </r>
       <r>  -20.8216    1.0000 </r>
       <r>  -19.7265    1.0000 </r>
       <r>  -18.3141    1.0000 </r>
       <r>  -18.2979    1.0000 </r>
       <r>  -17.3156    1.0000 </r>
       <r>  -17.2986    1.0000 </r>
       <r>  -16.9904    1.0000 </r>
       <r>  -15.9312    1.0000 </r>
       <r>  -15.0185    1.0000 </r>
       <r>  -15.0055    1.0000 </r>
       <r>  -13.2893    1.0000 </r>
       <r>  -13.2755    1.0000 </r>
       <r>  -11.3661    1.0000 </r>
       <r>  -10.9935    1.0000 </r>
       <r>  -10.9814    1.0000 </r>
       <r>  -10.5030    1.0000 </r>
       <r>  -10.4919    1.0000 </r>
       <r>   -9.8965    1.0000 </r>
       <r>   -9.6447    1.0000 </r>
       <r>   -9.5406    1.0000 </r>
       <r>   -9.5315    1.0000 </r>
       <r>   -9.3421    1.0000 </r>
       <r>   -8.6666    1.0000 </r>
       <r>   -8.4086    1.0000 </r>
       <r>   -8.1268    1.0000 </r>
       <r>   -8.1038    1.0000 </r>
       <r>   -7.4079    1.0000 </r>
       <r>   -7.0769    1.0000 </r>
       <r>   -7.0495    1.0000 </r>
       <r>   -5.8629    1.0000 </r>
       <r>   -5.8490    1.0000 </r>
       <r>   -5.0701    1.0000 </r>
       <r>   -5.0167    1.0000 </r>
       <r>   -5.0037    1.0000 </r>
       <r>   -1.0785    0.0000 </r>
       <r>   -0.8332    0.0000 </r>
       <r>   -0.8194    0.0000 </r>
       <r>    0.4044    0.0000 </r>
       <r>    0.4181    0.0000 </r>
       <r>    1.4635    0.0000 </r>
       <r>    1.4648    0.0000 </r>
       <r>    2.2671    0.0000 </r>
       <r>    2.2675    0.0000 </r>
       <r>    2.4854    0.0000 </r>
      </set>
      <set comment="kpoint 23">
       <r>  -21.6154    1.0000 </r>
       <r>  -21.2493    1.0000 </r>
       <r>  -21.2381    1.0000 </r>
       <r>  -19.0678    1.0000 </r>
       <r>  -19.0521    1.0000 </r>
       <r>  -18.3559    1.0000 </r>
       <r>  -17.0939    1.0000 </r>
       <r>  -17.0819    1.0000 </r>
       <r>  -16.7151    1.0000 </r>
       <r>  -15.6689    1.0000 </r>
       <r>  -15.6241    1.0000 </r>
       <r>  -15.6103    1.0000 </r>
       <r>  -12.9247    1.0000 </r>
       <r>  -12.2647    1.0000 </r>
       <r>  -12.2519    1.0000 </r>
       <r>  -11.3466    1.0000 </r>
       <r>  -10.5686    1.0000 </r>
       <r>  -10.5591    1.0000 </r>
       <r>  -10.5456    1.0000 </r>
       <r>   -9.8225    1.0000 </r>
       <r>   -9.8103    1.0000 </r>
       <r>   -9.5984    1.0000 </r>
       <r>   -9.1656    1.0000 </r>
       <r>   -9.1566    1.0000 </r>
       <r>   -8.8325    1.0000 </r>
       <r>   -8.8075    1.0000 </r>
       <r>   -7.8944    1.0000 </r>
       <r>   -7.7006    1.0000 </r>
       <r>   -7.6750    1.0000 </r>
       <r>   -7.0698    1.0000 </r>
       <r>   -6.6729    1.0000 </r>
       <r>   -6.6588    1.0000 </r>
       <r>   -5.8912    1.0000 </r>
       <r>   -5.0073    1.0000 </r>
       <r>   -4.9962    1.0000 </r>
       <r>   -4.6796    1.0000 </r>
       <r>   -1.2174    0.0000 </r>
       <r>   -1.0373    0.0000 </r>
       <r>   -1.0230    0.0000 </r>
       <r>    0.5226    0.0000 </r>
       <r>    1.3912    0.0000 </r>
       <r>    1.4777    0.0000 </r>
       <r>    1.4943    0.0000 </r>
       <r>    1.8997    0.0000 </r>
       <r>    1.9008    0.0000 </r>
       <r>    2.1942    0.0000 </r>
      </set>
      <set comment="kpoint 24">
       <r>  -21.6152    1.0000 </r>
       <r>  -21.2493    1.0000 </r>
       <r>  -21.2382    1.0000 </r>
       <r>  -19.0681    1.0000 </r>
       <r>  -19.0523    1.0000 </r>
       <r>  -18.3555    1.0000 </r>
       <r>  -17.0959    1.0000 </r>
       <r>  -17.0840    1.0000 </r>
       <r>  -16.7076    1.0000 </r>
       <r>  -15.6850    1.0000 </r>
       <r>  -15.6176    1.0000 </r>
       <r>  -15.6039    1.0000 </r>
       <r>  -12.9114    1.0000 </r>
       <r>  -12.2749    1.0000 </r>
       <r>  -12.2618    1.0000 </r>
       <r>  -11.3614    1.0000 </r>
       <r>  -10.5553    1.0000 </r>
       <r>  -10.5501    1.0000 </r>
       <r>  -10.5336    1.0000 </r>
       <r>   -9.8289    1.0000 </r>
       <r>   -9.8164    1.0000 </r>
       <r>   -9.5989    1.0000 </r>
       <r>   -9.1654    1.0000 </r>
       <r>   -9.1564    1.0000 </r>
       <r>   -8.8362    1.0000 </r>
       <r>   -8.8115    1.0000 </r>
       <r>   -7.8717    1.0000 </r>
       <r>   -7.6972    1.0000 </r>
       <r>   -7.6702    1.0000 </r>
       <r>   -7.0941    1.0000 </r>
       <r>   -6.6706    1.0000 </r>
       <r>   -6.6564    1.0000 </r>
       <r>   -5.8957    1.0000 </r>
       <r>   -5.0140    1.0000 </r>
       <r>   -5.0031    1.0000 </r>
       <r>   -4.6662    1.0000 </r>
       <r>   -1.2383    0.0000 </r>
       <r>   -1.0261    0.0000 </r>
       <r>   -1.0119    0.0000 </r>
       <r>    0.5338    0.0000 </r>
       <r>    1.3911    0.0000 </r>
       <r>    1.4707    0.0000 </r>
       <r>    1.4873    0.0000 </r>
       <r>    1.8998    0.0000 </r>
       <r>    1.9008    0.0000 </r>
       <r>    2.1941    0.0000 </r>
      </set>
      <set comment="kpoint 25">
       <r>  -21.6154    1.0000 </r>
       <r>  -21.2438    1.0000 </r>
       <r>  -21.2435    1.0000 </r>
       <r>  -19.0605    1.0000 </r>
       <r>  -19.0599    1.0000 </r>
       <r>  -18.3555    1.0000 </r>
       <r>  -17.0911    1.0000 </r>
       <r>  -17.0868    1.0000 </r>
       <r>  -16.7114    1.0000 </r>
       <r>  -15.6769    1.0000 </r>
       <r>  -15.6204    1.0000 </r>
       <r>  -15.6077    1.0000 </r>
       <r>  -12.9182    1.0000 </r>
       <r>  -12.2685    1.0000 </r>
       <r>  -12.2581    1.0000 </r>
       <r>  -11.3542    1.0000 </r>
       <r>  -10.5582    1.0000 </r>
       <r>  -10.5544    1.0000 </r>
       <r>  -10.5431    1.0000 </r>
       <r>   -9.8256    1.0000 </r>
       <r>   -9.8136    1.0000 </r>
       <r>   -9.5987    1.0000 </r>
       <r>   -9.1615    1.0000 </r>
       <r>   -9.1605    1.0000 </r>
       <r>   -8.8331    1.0000 </r>
       <r>   -8.8107    1.0000 </r>
       <r>   -7.8834    1.0000 </r>
       <r>   -7.6979    1.0000 </r>
       <r>   -7.6735    1.0000 </r>
       <r>   -7.0818    1.0000 </r>
       <r>   -6.6662    1.0000 </r>
       <r>   -6.6632    1.0000 </r>
       <r>   -5.8934    1.0000 </r>
       <r>   -5.0113    1.0000 </r>
       <r>   -4.9990    1.0000 </r>
       <r>   -4.6729    1.0000 </r>
       <r>   -1.2279    0.0000 </r>
       <r>   -1.0346    0.0000 </r>
       <r>   -1.0145    0.0000 </r>
       <r>    0.5281    0.0000 </r>
       <r>    1.3911    0.0000 </r>
       <r>    1.4779    0.0000 </r>
       <r>    1.4872    0.0000 </r>
       <r>    1.9001    0.0000 </r>
       <r>    1.9004    0.0000 </r>
       <r>    2.1941    0.0000 </r>
      </set>
     </set>
    </set>
   </array>
  </eigenvalues>
  <separator name="orbital magnetization" >
   <v name="MAGDIPOLOUT">      0.00000000      0.00000000      0.00000000</v>
  </separator>
  <dos>
   <i name="efermi">     -2.75527881 </i>
   <total>
    <array>
     <dimension dim="1">gridpoints</dimension>
     <dimension dim="2">spin</dimension>
     <field>energy</field>
     <field>total</field>
     <field>integrated</field>
     <set>
      <set comment="spin 1">
       <r>   -23.5113     0.0000     0.0000 </r>
       <r>   -23.4192     0.0000     0.0000 </r>
       <r>   -23.3272     0.0000     0.0000 </r>
       <r>   -23.2351     0.0000     0.0000 </r>
       <r>   -23.1430     0.0000     0.0000 </r>
       <r>   -23.0510     0.0000     0.0000 </r>
       <r>   -22.9589     0.0000     0.0000 </r>
       <r>   -22.8669     0.0000     0.0000 </r>
       <r>   -22.7748     0.0000     0.0000 </r>
       <r>   -22.6827     0.0000     0.0000 </r>
       <r>   -22.5907     0.0000     0.0000 </r>
       <r>   -22.4986     0.0000     0.0000 </r>
       <r>   -22.4066     0.0000     0.0000 </r>
       <r>   -22.3145     0.0236     0.0022 </r>
       <r>   -22.2224     1.1017     0.1036 </r>
       <r>   -22.1304     2.3658     0.3214 </r>
       <r>   -22.0383     3.5653     0.6496 </r>
       <r>   -21.9463     1.5380     0.7912 </r>
       <r>   -21.8542     4.0183     1.1611 </r>
       <r>   -21.7621     2.8376     1.4224 </r>
       <r>   -21.6701     1.1183     1.5253 </r>
       <r>   -21.5780     3.8487     1.8796 </r>
       <r>   -21.4860     3.9050     2.2391 </r>
       <r>   -21.3939     1.6538     2.3914 </r>
       <r>   -21.3018     1.3370     2.5144 </r>
       <r>   -21.2098     4.2557     2.9062 </r>
       <r>   -21.1177     4.6047     3.3301 </r>
       <r>   -21.0257     1.5155     3.4696 </r>
       <r>   -20.9336     1.1214     3.5729 </r>
       <r>   -20.8416     2.3767     3.7917 </r>
       <r>   -20.7495     5.5250     4.3003 </r>
       <r>   -20.6574     2.1237     4.4958 </r>
       <r>   -20.5654     4.2780     4.8896 </r>
       <r>   -20.4733     0.5340     4.9388 </r>
       <r>   -20.3813     0.5330     4.9879 </r>
       <r>   -20.2892     5.1609     5.4630 </r>
       <r>   -20.1971     4.6706     5.8930 </r>
       <r>   -20.1051     2.9000     6.1599 </r>
       <r>   -20.0130     1.1579     6.2665 </r>
       <r>   -19.9210     3.9939     6.6342 </r>
       <r>   -19.8289     0.2098     6.6535 </r>
       <r>   -19.7368     1.3370     6.7766 </r>
       <r>   -19.6448     7.6131     7.4775 </r>
       <r>   -19.5527     2.6224     7.7189 </r>
       <r>   -19.4607     4.1124     8.0975 </r>
       <r>   -19.3686     0.2794     8.1232 </r>
       <r>   -19.2765     1.8370     8.2923 </r>
       <r>   -19.1845     3.3985     8.6052 </r>
       <r>   -19.0924     1.0583     8.7026 </r>
       <r>   -19.0004     4.7086     9.1361 </r>
       <r>   -18.9083     5.7877     9.6689 </r>
       <r>   -18.8162     2.0452     9.8572 </r>
       <r>   -18.7242     4.0755    10.2323 </r>
       <r>   -18.6321     1.0215    10.3264 </r>
       <r>   -18.5401     0.0467    10.3307 </r>
       <r>   -18.4480     3.0340    10.6100 </r>
       <r>   -18.3559     3.9874    10.9771 </r>
       <r>   -18.2639     5.5895    11.4916 </r>
       <r>   -18.1718     2.5229    11.7239 </r>
       <r>   -18.0798     4.2095    12.1114 </r>
       <r>   -17.9877     1.9679    12.2926 </r>
       <r>   -17.8956     3.7816    12.6407 </r>
       <r>   -17.8036     1.4605    12.7752 </r>
       <r>   -17.7115     0.0064    12.7758 </r>
       <r>   -17.6195     1.7566    12.9375 </r>
       <r>   -17.5274     8.6970    13.7381 </r>
       <r>   -17.4353     4.9759    14.1962 </r>
       <r>   -17.3433     1.3858    14.3238 </r>
       <r>   -17.2512     4.8459    14.7699 </r>
       <r>   -17.1592     2.3429    14.9856 </r>
       <r>   -17.0671     3.8478    15.3398 </r>
       <r>   -16.9751     3.0814    15.6235 </r>
       <r>   -16.8830     0.9866    15.7143 </r>
       <r>   -16.7909     1.5422    15.8563 </r>
       <r>   -16.6989     8.7295    16.6599 </r>
       <r>   -16.6068     5.5002    17.1662 </r>
       <r>   -16.5148     0.1894    17.1837 </r>
       <r>   -16.4227     0.0000    17.1837 </r>
       <r>   -16.3306     0.0000    17.1837 </r>
       <r>   -16.2386     0.0405    17.1874 </r>
       <r>   -16.1465     1.7300    17.3467 </r>
       <r>   -16.0545     1.1519    17.4527 </r>
       <r>   -15.9624     4.7907    17.8937 </r>
       <r>   -15.8703     2.8529    18.1564 </r>
       <r>   -15.7783     0.5621    18.2081 </r>
       <r>   -15.6862     3.2251    18.5050 </r>
       <r>   -15.5942     5.3500    18.9975 </r>
       <r>   -15.5021     1.5733    19.1424 </r>
       <r>   -15.4100     0.0585    19.1478 </r>
       <r>   -15.3180     1.6427    19.2990 </r>
       <r>   -15.2259     9.9539    20.2154 </r>
       <r>   -15.1339     3.4162    20.5298 </r>
       <r>   -15.0418     0.9952    20.6215 </r>
       <r>   -14.9497     4.8988    21.0724 </r>
       <r>   -14.8577     4.4371    21.4809 </r>
       <r>   -14.7656     1.2971    21.6003 </r>
       <r>   -14.6736     2.8285    21.8607 </r>
       <r>   -14.5815     8.5181    22.6449 </r>
       <r>   -14.4894     0.9750    22.7346 </r>
       <r>   -14.3974     0.0950    22.7434 </r>
       <r>   -14.3053     3.7532    23.0889 </r>
       <r>   -14.2133     4.1583    23.4717 </r>
       <r>   -14.1212     4.4770    23.8839 </r>
       <r>   -14.0291     0.8928    23.9661 </r>
       <r>   -13.9371     3.3847    24.2777 </r>
       <r>   -13.8450     1.8555    24.4485 </r>
       <r>   -13.7530     1.2587    24.5643 </r>
       <r>   -13.6609     4.0004    24.9326 </r>
       <r>   -13.5688     2.3098    25.1453 </r>
       <r>   -13.4768     4.3324    25.5441 </r>
       <r>   -13.3847     1.4163    25.6745 </r>
       <r>   -13.2927     2.4399    25.8991 </r>
       <r>   -13.2006     3.6877    26.2386 </r>
       <r>   -13.1086     0.0690    26.2449 </r>
       <r>   -13.0165     0.7999    26.3186 </r>
       <r>   -12.9244     9.4312    27.1868 </r>
       <r>   -12.8324     5.0459    27.6513 </r>
       <r>   -12.7403     3.2822    27.9535 </r>
       <r>   -12.6483     0.3586    27.9865 </r>
       <r>   -12.5562     2.1343    28.1830 </r>
       <r>   -12.4641     0.2535    28.2063 </r>
       <r>   -12.3721     1.5842    28.3522 </r>
       <r>   -12.2800     7.9429    29.0834 </r>
       <r>   -12.1880     8.6962    29.8840 </r>
       <r>   -12.0959     2.9966    30.1598 </r>
       <r>   -12.0038     0.0462    30.1641 </r>
       <r>   -11.9118     1.8985    30.3388 </r>
       <r>   -11.8197     3.3916    30.6511 </r>
       <r>   -11.7277     3.6727    30.9892 </r>
       <r>   -11.6356     6.4738    31.5851 </r>
       <r>   -11.5435     0.5158    31.6326 </r>
       <r>   -11.4515     0.2294    31.6538 </r>
       <r>   -11.3594     6.4791    32.2502 </r>
       <r>   -11.2674     6.0494    32.8071 </r>
       <r>   -11.1753     3.3753    33.1179 </r>
       <r>   -11.0832     5.5656    33.6302 </r>
       <r>   -10.9912     4.6998    34.0629 </r>
       <r>   -10.8991     2.8277    34.3232 </r>
       <r>   -10.8071     0.0361    34.3265 </r>
       <r>   -10.7150     0.0033    34.3268 </r>
       <r>   -10.6229     1.4939    34.4644 </r>
       <r>   -10.5309    11.0111    35.4780 </r>
       <r>   -10.4388    10.6795    36.4612 </r>
       <r>   -10.3468     2.8232    36.7211 </r>
       <r>   -10.2547     5.9354    37.2675 </r>
       <r>   -10.1626     2.0531    37.4565 </r>
       <r>   -10.0706     4.2791    37.8504 </r>
       <r>    -9.9785     4.9739    38.3083 </r>
       <r>    -9.8865    10.8212    39.3045 </r>
       <r>    -9.7944    10.0127    40.2263 </r>
       <r>    -9.7023     6.2132    40.7983 </r>
       <r>    -9.6103     8.8077    41.6091 </r>
       <r>    -9.5182     8.8242    42.4215 </r>
       <r>    -9.4262     5.5174    42.9294 </r>
       <r>    -9.3341     3.7801    43.2774 </r>
       <r>    -9.2421    10.3916    44.2340 </r>
       <r>    -9.1500    11.9543    45.3345 </r>
       <r>    -9.0579    14.9053    46.7067 </r>
       <r>    -8.9659     6.7952    47.3323 </r>
       <r>    -8.8738     3.0228    47.6106 </r>
       <r>    -8.7818    12.4935    48.7607 </r>
       <r>    -8.6897     6.8295    49.3894 </r>
       <r>    -8.5976     7.4231    50.0728 </r>
       <r>    -8.5056     7.0742    50.7240 </r>
       <r>    -8.4135     8.0688    51.4668 </r>
       <r>    -8.3215     3.3332    51.7737 </r>
       <r>    -8.2294     4.0372    52.1454 </r>
       <r>    -8.1373     5.5340    52.6548 </r>
       <r>    -8.0453    13.8148    53.9266 </r>
       <r>    -7.9532     5.2396    54.4090 </r>
       <r>    -7.8612     4.9765    54.8671 </r>
       <r>    -7.7691     1.1715    54.9749 </r>
       <r>    -7.6770     8.4244    55.7505 </r>
       <r>    -7.5850     7.0117    56.3960 </r>
       <r>    -7.4929     5.1503    56.8701 </r>
       <r>    -7.4009     2.9277    57.1396 </r>
       <r>    -7.3088     7.3581    57.8170 </r>
       <r>    -7.2167     2.2659    58.0256 </r>
       <r>    -7.1247    10.0378    58.9497 </r>
       <r>    -7.0326     7.8169    59.6693 </r>
       <r>    -6.9406     3.4534    59.9872 </r>
       <r>    -6.8485     3.5857    60.3173 </r>
       <r>    -6.7564     0.1430    60.3305 </r>
       <r>    -6.6644     4.3161    60.7278 </r>
       <r>    -6.5723    10.5594    61.6999 </r>
       <r>    -6.4803     8.8277    62.5126 </r>
       <r>    -6.3882     4.1220    62.8921 </r>
       <r>    -6.2961     4.0310    63.2632 </r>
       <r>    -6.2041     1.7741    63.4265 </r>
       <r>    -6.1120     4.9647    63.8836 </r>
       <r>    -6.0200     4.8079    64.3262 </r>
       <r>    -5.9279     2.8607    64.5895 </r>
       <r>    -5.8358     7.9389    65.3204 </r>
       <r>    -5.7438     7.1469    65.9783 </r>
       <r>    -5.6517     3.4457    66.2955 </r>
       <r>    -5.5597     3.7854    66.6440 </r>
       <r>    -5.4676     1.4814    66.7804 </r>
       <r>    -5.3756     3.1945    67.0745 </r>
       <r>    -5.2835     2.0846    67.2664 </r>
       <r>    -5.1914     1.5243    67.4067 </r>
       <r>    -5.0994     3.2398    67.7050 </r>
       <r>    -5.0073    15.6327    69.1441 </r>
       <r>    -4.9153     6.1413    69.7095 </r>
       <r>    -4.8232     0.0524    69.7143 </r>
       <r>    -4.7311     0.1378    69.7270 </r>
       <r>    -4.6391     2.0643    69.9170 </r>
       <r>    -4.5470     0.4612    69.9595 </r>
       <r>    -4.4550     1.4196    70.0902 </r>
       <r>    -4.3629     3.9627    70.4550 </r>
       <r>    -4.2708     5.0581    70.9206 </r>
       <r>    -4.1788     2.8211    71.1803 </r>
       <r>    -4.0867     0.0366    71.1837 </r>
       <r>    -3.9947     0.0102    71.1846 </r>
       <r>    -3.9026     1.2238    71.2973 </r>
       <r>    -3.8105     1.4088    71.4270 </r>
       <r>    -3.7185     0.0173    71.4286 </r>
       <r>    -3.6264     0.0139    71.4299 </r>
       <r>    -3.5344     2.1929    71.6317 </r>
       <r>    -3.4423     3.0653    71.9139 </r>
       <r>    -3.3502     0.0483    71.9184 </r>
       <r>    -3.2582     0.0000    71.9184 </r>
       <r>    -3.1661     0.0000    71.9184 </r>
       <r>    -3.0741     0.0000    71.9184 </r>
       <r>    -2.9820     0.0000    71.9184 </r>
       <r>    -2.8899     0.0002    71.9184 </r>
       <r>    -2.7979     0.2202    71.9387 </r>
       <r>    -2.7058     1.3930    72.0669 </r>
       <r>    -2.6138     0.1599    72.0816 </r>
       <r>    -2.5217     0.0001    72.0816 </r>
       <r>    -2.4296     0.0000    72.0816 </r>
       <r>    -2.3376     0.0000    72.0816 </r>
       <r>    -2.2455     0.0000    72.0816 </r>
       <r>    -2.1535     0.0001    72.0816 </r>
       <r>    -2.0614     0.3001    72.1093 </r>
       <r>    -1.9693     4.1558    72.4918 </r>
       <r>    -1.8773     0.8634    72.5713 </r>
       <r>    -1.7852     0.0520    72.5761 </r>
       <r>    -1.6932     1.7690    72.7390 </r>
       <r>    -1.6011     0.8369    72.8160 </r>
       <r>    -1.5091     0.0032    72.8163 </r>
       <r>    -1.4170     0.0028    72.8166 </r>
       <r>    -1.3249     1.9288    72.9942 </r>
       <r>    -1.2329    11.4259    74.0460 </r>
       <r>    -1.1408     2.7958    74.3034 </r>
       <r>    -1.0488     3.5108    74.6266 </r>
       <r>    -0.9567     5.8260    75.1629 </r>
       <r>    -0.8646     1.7820    75.3270 </r>
       <r>    -0.7726     4.2577    75.7189 </r>
       <r>    -0.6805     3.3603    76.0283 </r>
       <r>    -0.5885     4.7786    76.4682 </r>
       <r>    -0.4964     2.9806    76.7426 </r>
       <r>    -0.4043     3.7567    77.0884 </r>
       <r>    -0.3123     3.3540    77.3972 </r>
       <r>    -0.2202     5.1930    77.8753 </r>
       <r>    -0.1282     0.9084    77.9589 </r>
       <r>    -0.0361     0.0034    77.9592 </r>
       <r>     0.0560     0.5365    78.0086 </r>
       <r>     0.1480     4.2510    78.4000 </r>
       <r>     0.2401     1.4989    78.5379 </r>
       <r>     0.3321     4.1617    78.9211 </r>
       <r>     0.4242     3.6418    79.2563 </r>
       <r>     0.5163     3.0917    79.5410 </r>
       <r>     0.6083     3.6474    79.8767 </r>
       <r>     0.7004     1.3264    79.9988 </r>
       <r>     0.7924     5.8565    80.5380 </r>
       <r>     0.8845     5.8927    81.0805 </r>
       <r>     0.9766     1.4995    81.2185 </r>
       <r>     1.0686     4.2745    81.6120 </r>
       <r>     1.1607     1.8172    81.7793 </r>
       <r>     1.2527     5.6857    82.3027 </r>
       <r>     1.3448     2.0924    82.4954 </r>
       <r>     1.4369     6.9066    83.1312 </r>
       <r>     1.5289    14.0726    84.4267 </r>
       <r>     1.6210     4.4728    84.8385 </r>
       <r>     1.7130     4.6450    85.2661 </r>
       <r>     1.8051     3.3631    85.5757 </r>
       <r>     1.8972     8.7862    86.3845 </r>
       <r>     1.9892     8.9047    87.2043 </r>
       <r>     2.0813     9.2305    88.0541 </r>
       <r>     2.1733     6.8917    88.6885 </r>
       <r>     2.2654     6.9176    89.3253 </r>
       <r>     2.3574     7.4012    90.0067 </r>
       <r>     2.4495     5.8429    90.5446 </r>
       <r>     2.5416     4.0723    90.9195 </r>
       <r>     2.6336     2.3596    91.1367 </r>
       <r>     2.7257     2.1333    91.3331 </r>
       <r>     2.8177     4.6032    91.7569 </r>
       <r>     2.9098     2.5112    91.9880 </r>
       <r>     3.0019     0.1299    92.0000 </r>
       <r>     3.0939     0.0000    92.0000 </r>
       <r>     3.1860     0.0000    92.0000 </r>
       <r>     3.2780     0.0000    92.0000 </r>
       <r>     3.3701     0.0000    92.0000 </r>
       <r>     3.4622     0.0000    92.0000 </r>
       <r>     3.5542     0.0000    92.0000 </r>
       <r>     3.6463     0.0000    92.0000 </r>
       <r>     3.7383     0.0000    92.0000 </r>
       <r>     3.8304     0.0000    92.0000 </r>
       <r>     3.9225     0.0000    92.0000 </r>
       <r>     4.0145     0.0000    92.0000 </r>
       <r>     4.1066     0.0000    92.0000 </r>
      </set>
     </set>
    </array>
   </total>
  </dos>
 </calculation>
 <structure name="finalpos" >
  <crystal>
   <varray name="basis" >
    <v>       7.40170591       0.00000000       0.00000000 </v>
    <v>      -3.70085295       6.41006527       0.00000000 </v>
    <v>       0.00000000       0.00000000      20.00000000 </v>
   </varray>
   <i name="volume">    948.90835877 </i>
   <varray name="rec_basis" >
    <v>       0.13510399       0.07800233       0.00000000 </v>
    <v>       0.00000000       0.15600465       0.00000000 </v>
    <v>       0.00000000       0.00000000       0.05000000 </v>
   </varray>
  </crystal>
  <varray name="positions" >
   <v>       0.00000000       0.00000000       0.49950000 </v>
   <v>       0.33333333       0.00000000       0.50000000 </v>
   <v>       0.66666667       0.00000000       0.50000000 </v>
   <v>       0.00000000       0.33333333       0.50000000 </v>
   <v>       0.33333333       0.33333333       0.50000000 </v>
   <v>       0.66666667       0.33333333       0.50000000 </v>
   <v>       0.00000000       0.66666667       0.50000000 </v>
   <v>       0.33333333       0.66666667       0.50000000 </v>
   <v>       0.66666667       0.66666667       0.50000000 </v>
   <v>       0.22087118       0.11111111       0.50000000 </v>
   <v>       0.55555556       0.11111111       0.50000000 </v>
   <v>       0.88888889       0.11111111       0.50000000 </v>
   <v>       0.22222222       0.44444444       0.50000000 </v>
   <v>       0.55555556       0.44444444       0.50000000 </v>
   <v>       0.88888889       0.44444444       0.50000000 </v>
   <v>       0.22222222       0.77777778       0.50000000 </v>
   <v>       0.55555556       0.77777778       0.50000000 </v>
   <v>       0.88888889       0.77777778       0.50000000 </v>
  </varray>
 </structure>
</modeling>
