<?xml version="1.0" encoding="ISO-8859-1"?>
<modeling>
 <generator>
  <i name="program" type="string">vasp </i>
  <i name="version" type="string">6.4.1  </i>
  <i name="subversion" type="string">05Apr23 (build Feb 12 2025 00:37:39) complex                          parallel </i>
  <i name="platform" type="string">LinuxIFC </i>
  <i name="date" type="string">2025 02 14 </i>
  <i name="time" type="string">05:33:20 </i>
 </generator>
 <incar>
  <i type="string" name="SYSTEM">SCF</i>
  <i type="int" name="ISTART">     0</i>
  <i type="int" name="ICHARG">     2</i>
  <i type="int" name="NELM">    60</i>
  <i type="int" name="NELMIN">     6</i>
  <i name="EDIFF">      0.00000100</i>
  <i name="EDIFFG">     -0.00000100</i>
  <i name="ENCUT">    600.00000000</i>
  <i type="string" name="LREAL">Auto</i>
  <i type="int" name="ISMEAR">     0</i>
  <i name="SIGMA">      0.05000000</i>
  <i type="logical" name="LWAVE"> F  </i>
  <i type="logical" name="LCHARG"> F  </i>
 </incar>
 <primitive_cell>
  <structure name="primitive_cell" >
   <crystal>
    <varray name="basis" >
     <v>       7.40170591       0.00000000       0.00000000 </v>
     <v>      -3.70085295       6.41006527       0.00000000 </v>
     <v>       0.00000000       0.00000000      20.00000000 </v>
    </varray>
    <i name="volume">    948.90835877 </i>
    <varray name="rec_basis" >
     <v>       0.13510399       0.07800233       0.00000000 </v>
     <v>       0.00000000       0.15600465       0.00000000 </v>
     <v>       0.00000000       0.00000000       0.05000000 </v>
    </varray>
   </crystal>
   <varray name="positions" >
    <v>       0.00078002       0.00156005       0.50000000 </v>
    <v>       0.33411336       0.00156005       0.50000000 </v>
    <v>       0.66666667       0.00000000       0.50000000 </v>
    <v>       1.00000000       0.33333333       0.50000000 </v>
    <v>       0.33333333       0.33333333       0.50000000 </v>
    <v>       0.66666667       0.33333333       0.50000000 </v>
    <v>       1.00000000       0.66666667       0.50000000 </v>
    <v>       0.33333333       0.66666667       0.50000000 </v>
    <v>       0.66666667       0.66666667       0.50000000 </v>
    <v>       0.22222222       0.11111111       0.50000000 </v>
    <v>       0.55555556       0.11111111       0.50000000 </v>
    <v>       0.88888889       0.11111111       0.50000000 </v>
    <v>       0.22222222       0.44444444       0.50000000 </v>
    <v>       0.55555556       0.44444444       0.50000000 </v>
    <v>       0.88888889       0.44444444       0.50000000 </v>
    <v>       0.22222222       0.77777778       0.50000000 </v>
    <v>       0.55555556       0.77777778       0.50000000 </v>
    <v>       0.88888889       0.77777778       0.50000000 </v>
   </varray>
  </structure>
  <varray name="primitive_index" >
   <v type="int" >        1 </v>
   <v type="int" >        2 </v>
   <v type="int" >        3 </v>
   <v type="int" >        4 </v>
   <v type="int" >        5 </v>
   <v type="int" >        6 </v>
   <v type="int" >        7 </v>
   <v type="int" >        8 </v>
   <v type="int" >        9 </v>
   <v type="int" >       10 </v>
   <v type="int" >       11 </v>
   <v type="int" >       12 </v>
   <v type="int" >       13 </v>
   <v type="int" >       14 </v>
   <v type="int" >       15 </v>
   <v type="int" >       16 </v>
   <v type="int" >       17 </v>
   <v type="int" >       18 </v>
  </varray>
 </primitive_cell>
 <kpoints>
  <generation param="Gamma">
   <v type="int" name="divisions">       7        7        1 </v>
   <v name="usershift">      0.00000000       0.00000000       0.00000000 </v>
   <v name="genvec1">      0.14285714       0.00000000       0.00000000 </v>
   <v name="genvec2">      0.00000000       0.14285714       0.00000000 </v>
   <v name="genvec3">      0.00000000       0.00000000       1.00000000 </v>
   <v name="shift">      0.00000000       0.00000000       0.00000000 </v>
  </generation>
  <varray name="kpointlist" >
   <v>       0.00000000       0.00000000       0.00000000 </v>
   <v>       0.14285714       0.00000000       0.00000000 </v>
   <v>       0.00000000       0.14285714       0.00000000 </v>
   <v>       0.28571429       0.00000000       0.00000000 </v>
   <v>       0.00000000       0.28571429       0.00000000 </v>
   <v>       0.42857143       0.00000000       0.00000000 </v>
   <v>       0.00000000       0.42857143       0.00000000 </v>
   <v>       0.14285714       0.14285714       0.00000000 </v>
   <v>      -0.28571429       0.14285714       0.00000000 </v>
   <v>       0.28571429       0.14285714       0.00000000 </v>
   <v>      -0.14285714       0.42857143       0.00000000 </v>
   <v>      -0.42857143       0.28571429       0.00000000 </v>
   <v>       0.42857143       0.14285714       0.00000000 </v>
   <v>      -0.14285714      -0.42857143       0.00000000 </v>
   <v>       0.28571429       0.28571429       0.00000000 </v>
   <v>       0.42857143       0.28571429       0.00000000 </v>
  </varray>
  <varray name="weights" >
   <v>       0.02040816 </v>
   <v>       0.08163265 </v>
   <v>       0.04081633 </v>
   <v>       0.08163265 </v>
   <v>       0.04081633 </v>
   <v>       0.08163265 </v>
   <v>       0.04081633 </v>
   <v>       0.08163265 </v>
   <v>       0.04081633 </v>
   <v>       0.08163265 </v>
   <v>       0.08163265 </v>
   <v>       0.08163265 </v>
   <v>       0.08163265 </v>
   <v>       0.04081633 </v>
   <v>       0.08163265 </v>
   <v>       0.04081633 </v>
  </varray>
 </kpoints>
 <parameters>
  <separator name="general" >
   <i type="string" name="SYSTEM">SCF</i>
   <i type="logical" name="LCOMPAT"> F  </i>
  </separator>
  <separator name="electronic" >
   <i type="string" name="PREC">normal</i>
   <i name="ENMAX">    600.00000000</i>
   <i name="ENAUG">    644.87300000</i>
   <i name="EDIFF">      0.00000100</i>
   <i type="int" name="IALGO">    38</i>
   <i type="int" name="IWAVPR">    10</i>
   <i type="int" name="NBANDS">    46</i>
   <i type="int" name="NBANDSLOW">    -1</i>
   <i type="int" name="NBANDSHIGH">    -1</i>
   <i name="NELECT">     72.00000000</i>
   <i type="int" name="TURBO">     0</i>
   <i type="int" name="IRESTART">     0</i>
   <i type="int" name="NREBOOT">     0</i>
   <i type="int" name="NMIN">     0</i>
   <i name="EREF">      0.00000000</i>
   <separator name="electronic smearing" >
    <i type="int" name="ISMEAR">     0</i>
    <i name="SIGMA">      0.05000000</i>
    <i name="KSPACING">      0.50000000</i>
    <i type="logical" name="KGAMMA"> T  </i>
    <i type="logical" name="KBLOWUP"> T  </i>
   </separator>
   <separator name="electronic projectors" >
    <i type="logical" name="LREAL"> T  </i>
    <v name="ROPT">     -0.00050000</v>
    <i type="int" name="LMAXPAW">  -100</i>
    <i type="int" name="LMAXMIX">     2</i>
    <i type="logical" name="NLSPLINE"> F  </i>
   </separator>
   <separator name="electronic startup" >
    <i type="int" name="ISTART">     0</i>
    <i type="int" name="ICHARG">     2</i>
    <i type="int" name="INIWAV">     1</i>
   </separator>
   <separator name="electronic spin" >
    <i type="int" name="ISPIN">     1</i>
    <i type="logical" name="LNONCOLLINEAR"> F  </i>
    <v name="MAGMOM">      1.00000000      1.00000000      1.00000000      1.00000000      1.00000000      1.00000000      1.00000000      1.00000000      1.00000000      1.00000000      1.00000000      1.00000000      1.00000000      1.00000000      1.00000000      1.00000000      1.00000000      1.00000000</v>
    <i name="NUPDOWN">     -1.00000000</i>
    <i type="logical" name="LSORBIT"> F  </i>
    <v name="SAXIS">      0.00000000      0.00000000      1.00000000</v>
    <i type="logical" name="LSPIRAL"> F  </i>
    <v name="QSPIRAL">      0.00000000      0.00000000      0.00000000</v>
    <i type="logical" name="LZEROZ"> F  </i>
   </separator>
   <separator name="electronic exchange-correlation" >
    <i type="logical" name="LASPH"> F  </i>
    <i type="logical" name="LMETAGGA"> F  </i>
   </separator>
   <separator name="electronic convergence" >
    <i type="int" name="NELM">    60</i>
    <i type="int" name="NELMDL">    -5</i>
    <i type="int" name="NELMIN">     6</i>
    <i name="ENINI">    600.00000000</i>
    <separator name="electronic convergence detail" >
     <i type="logical" name="LDIAG"> T  </i>
     <i type="logical" name="LSUBROT"> F  </i>
     <i name="WEIMIN">      0.00000000</i>
     <i name="EBREAK">      0.00000000</i>
     <i name="DEPER">      0.30000000</i>
     <i type="int" name="NRMM">     4</i>
     <i name="TIME">      0.40000000</i>
    </separator>
   </separator>
   <separator name="electronic mixer" >
    <i name="AMIX">      0.40000000</i>
    <i name="BMIX">      1.00000000</i>
    <i name="AMIN">      0.10000000</i>
    <i name="AMIX_MAG">      1.60000000</i>
    <i name="BMIX_MAG">      1.00000000</i>
    <separator name="electronic mixer details" >
     <i type="int" name="IMIX">     4</i>
     <i type="logical" name="MIXFIRST"> F  </i>
     <i type="int" name="MAXMIX">   -45</i>
     <i name="WC">    100.00000000</i>
     <i type="int" name="INIMIX">     1</i>
     <i type="int" name="MIXPRE">     1</i>
     <i type="int" name="MREMOVE">     5</i>
    </separator>
   </separator>
   <separator name="electronic dipolcorrection" >
    <i type="logical" name="LDIPOL"> F  </i>
    <i type="logical" name="LMONO"> F  </i>
    <i type="int" name="IDIPOL">     0</i>
    <i name="EPSILON">      1.00000000</i>
    <v name="DIPOL">   -100.00000000   -100.00000000   -100.00000000</v>
    <i name="EFIELD">      0.00000000</i>
   </separator>
  </separator>
  <separator name="grids" >
   <i type="int" name="NGX">    48</i>
   <i type="int" name="NGY">    48</i>
   <i type="int" name="NGZ">   120</i>
   <i type="int" name="NGXF">    96</i>
   <i type="int" name="NGYF">    96</i>
   <i type="int" name="NGZF">   240</i>
   <i type="logical" name="ADDGRID"> F  </i>
  </separator>
  <separator name="ionic" >
   <i type="int" name="NSW">     0</i>
   <i type="int" name="IBRION">    -1</i>
   <i type="int" name="MDALGO">     0</i>
   <i type="int" name="ISIF">     2</i>
   <i name="PSTRESS">      0.00000000</i>
   <i name="EDIFFG">     -0.00000100</i>
   <i type="int" name="NFREE">     0</i>
   <i name="POTIM">      0.50000000</i>
   <i name="SMASS">     -3.00000000</i>
   <i name="SCALEE">      1.00000000</i>
  </separator>
  <separator name="ionic md" >
   <i name="TEBEG">      0.00010000</i>
   <i name="TEEND">      0.00010000</i>
   <i type="int" name="NBLOCK">     1</i>
   <i type="int" name="KBLOCK">     1</i>
   <i type="int" name="NPACO">   256</i>
   <i name="APACO">     10.00000000</i>
  </separator>
  <separator name="symmetry" >
   <i type="int" name="ISYM">     2</i>
   <i name="SYMPREC">      0.00001000</i>
  </separator>
  <separator name="dos" >
   <i type="int" name="LORBIT">     0</i>
   <v name="RWIGS">     -1.00000000</v>
   <i type="int" name="NEDOS">   301</i>
   <i name="EMIN">     10.00000000</i>
   <i name="EMAX">    -10.00000000</i>
   <i name="EFERMI">      0.00000000</i>
  </separator>
  <separator name="writing" >
   <i type="int" name="NWRITE">     2</i>
   <i type="logical" name="LWAVE"> F  </i>
   <i type="logical" name="LDOWNSAMPLE"> F  </i>
   <i type="logical" name="LCHARG"> F  </i>
   <i type="logical" name="LPARD"> F  </i>
   <i type="logical" name="LVTOT"> F  </i>
   <i type="logical" name="LVHAR"> F  </i>
   <i type="logical" name="LELF"> F  </i>
   <i type="logical" name="LOPTICS"> F  </i>
   <v name="STM">      0.00000000      0.00000000      0.00000000      0.00000000      0.00000000      0.00000000      0.00000000</v>
  </separator>
  <separator name="performance" >
   <i type="int" name="NPAR">     2</i>
   <i type="int" name="NSIM">     4</i>
   <i type="int" name="NBLK">    -1</i>
   <i type="logical" name="LPLANE"> T  </i>
   <i type="logical" name="LSCALAPACK"> T  </i>
   <i type="logical" name="LSCAAWARE"> F  </i>
   <i type="logical" name="LSCALU"> F  </i>
   <i type="logical" name="LASYNC"> F  </i>
   <i type="logical" name="LORBITALREAL"> F  </i>
  </separator>
  <separator name="miscellaneous" >
   <i type="int" name="IDIOT">     3</i>
   <i type="int" name="PHON_NSTRUCT">    -1</i>
   <i type="logical" name="LMUSIC"> F  </i>
   <v name="POMASS">     12.01100000</v>
   <v name="DARWINR">      0.00000000</v>
   <v name="DARWINV">      1.00000000</v>
   <i type="logical" name="LCORR"> T  </i>
  </separator>
  <i type="logical" name="GGA_COMPAT"> T  </i>
  <i type="logical" name="LBERRY"> F  </i>
  <i type="int" name="ICORELEVEL">     0</i>
  <i type="logical" name="LDAU"> F  </i>
  <i type="int" name="I_CONSTRAINED_M">     0</i>
  <separator name="electronic exchange-correlation" >
   <i type="string" name="GGA">--</i>
   <i type="int" name="VOSKOWN">     0</i>
   <i type="logical" name="LHFCALC"> F  </i>
   <i type="string" name="PRECFOCK"></i>
   <i type="logical" name="LSYMGRAD"> F  </i>
   <i type="logical" name="LHFONE"> F  </i>
   <i type="logical" name="LRHFCALC"> F  </i>
   <i type="logical" name="LTHOMAS"> F  </i>
   <i type="logical" name="LMODELHF"> F  </i>
   <i type="logical" name="LFOCKACE"> F  </i>
   <i name="ENCUT4O">     -1.00000000</i>
   <i type="int" name="EXXOEP">     0</i>
   <i type="int" name="FOURORBIT">     0</i>
   <i name="AEXX">      0.00000000</i>
   <i name="HFALPHA">      0.00000000</i>
   <i name="MCALPHA">      0.00000000</i>
   <i name="ALDAX">      1.00000000</i>
   <i name="AGGAX">      1.00000000</i>
   <i name="ALDAC">      1.00000000</i>
   <i name="AGGAC">      1.00000000</i>
   <i type="int" name="NKREDX">     1</i>
   <i type="int" name="NKREDY">     1</i>
   <i type="int" name="NKREDZ">     1</i>
   <i type="logical" name="SHIFTRED"> F  </i>
   <i type="logical" name="ODDONLY"> F  </i>
   <i type="logical" name="EVENONLY"> F  </i>
   <i type="int" name="LMAXFOCK">     0</i>
   <i type="int" name="NMAXFOCKAE">     0</i>
   <i type="logical" name="LFOCKAEDFT"> F  </i>
   <i name="HFSCREEN">      0.00000000</i>
   <i name="HFSCREENC">      0.00000000</i>
   <i type="int" name="NBANDSGWLOW">     0</i>
  </separator>
  <separator name="vdW DFT" >
   <i type="logical" name="LUSE_VDW"> F  </i>
   <i type="int" name="IVDW_NL">     1</i>
   <i type="logical" name="LSPIN_VDW"> F  </i>
   <i name="Zab_VDW">     -0.84910000</i>
   <i name="PARAM1">      0.12340000</i>
   <i name="PARAM2">      1.00000000</i>
   <i name="PARAM3">      0.00000000</i>
  </separator>
  <separator name="model GW" >
   <i type="int" name="MODEL_GW">     0</i>
   <i name="MODEL_EPS0">     31.63027863</i>
   <i name="MODEL_ALPHA">      1.00000000</i>
  </separator>
  <separator name="linear response parameters" >
   <i type="logical" name="LEPSILON"> F  </i>
   <i type="logical" name="LRPA"> F  </i>
   <i type="logical" name="LNABLA"> F  </i>
   <i type="logical" name="LVEL"> F  </i>
   <i name="CSHIFT">      0.10000000</i>
   <i name="OMEGAMAX">     -1.00000000</i>
   <i name="DEG_THRESHOLD">      0.00200000</i>
   <i name="RTIME">     -0.10000000</i>
   <i name="WPLASMAI">      0.00000000</i>
   <v name="DFIELD">      0.00000000      0.00000000      0.00000000</v>
   <v name="WPLASMA">      0.00000000      0.00000000      0.00000000      0.00000000      0.00000000      0.00000000      0.00000000      0.00000000      0.00000000</v>
  </separator>
  <separator name="orbital magnetization" >
   <i type="logical" name="NUCIND"> F  </i>
   <v name="MAGPOS">      0.00000000      0.00000000      0.00000000</v>
   <i type="logical" name="LNICSALL"> T  </i>
   <i type="logical" name="ORBITALMAG"> F  </i>
   <i type="logical" name="LMAGBLOCH"> F  </i>
   <i type="logical" name="LCHIMAG"> F  </i>
   <i type="logical" name="LGAUGE"> T  </i>
   <i type="int" name="MAGATOM">     0</i>
   <v name="MAGDIPOL">      0.00000000      0.00000000      0.00000000</v>
   <v name="AVECCONST">      0.00000000      0.00000000      0.00000000</v>
  </separator>
  <separator name="response functions" >
   <i type="logical" name="LALL_IN_ONE"> F  </i>
   <i type="int" name="IALL_IN_ONE">    -1</i>
   <i type="int" name="NBANDS_WAVE">    -1</i>
   <i type="logical" name="LFINITE_TEMPERATURE"> F  </i>
   <i type="logical" name="LADDER"> F  </i>
   <i type="logical" name="LRPAFORCE"> F  </i>
   <i type="logical" name="LFXC"> F  </i>
   <i type="logical" name="LHARTREE"> T  </i>
   <i type="int" name="IBSE">     0</i>
   <v type="int" name="KPOINT">    -1     0     0     0</v>
   <i type="logical" name="LTCTC"> F  </i>
   <i type="logical" name="LTCTE"> F  </i>
   <i type="logical" name="LTETE"> F  </i>
   <i type="logical" name="LTRIPLET"> F  </i>
   <i type="logical" name="LFXCEPS"> F  </i>
   <i type="logical" name="LFXHEG"> F  </i>
   <i type="int" name="NATURALO">     2</i>
   <i type="logical" name="LHOLEGF"> F  </i>
   <i type="logical" name="L2ORDER"> F  </i>
   <i type="logical" name="LDMP1"> F  </i>
   <i type="logical" name="LMP2LT"> F  </i>
   <i type="logical" name="LSMP2LT"> F  </i>
   <i type="logical" name="LGWLF"> F  </i>
   <i name="ENCUTGW">     -1.60000002</i>
   <i name="ENCUTGWSOFT">     -1.60000002</i>
   <i name="ENCUTLF">     -1.00000000</i>
   <i type="logical" name="LESF_SPLINES"> F  </i>
   <i type="int" name="LMAXMP2">    -1</i>
   <i name="SCISSOR">      0.00000000</i>
   <i type="int" name="NOMEGA">     0</i>
   <i type="int" name="NOMEGAR">     0</i>
   <i type="int" name="NBANDSGW">    -1</i>
   <i type="int" name="NBANDSO">    -1</i>
   <i type="int" name="NBANDSV">    -1</i>
   <i type="int" name="NELMGW">     1</i>
   <i type="int" name="NELMHF">     1</i>
   <i type="int" name="DIM">     3</i>
   <i type="int" name="IESPILON">     4</i>
   <i type="int" name="ANTIRES">     0</i>
   <i name="OMEGAMAX">    -30.00000000</i>
   <i name="OMEGAMIN">    -30.00000000</i>
   <i name="OMEGATL">   -200.00000000</i>
   <i type="int" name="OMEGAGRID">     0</i>
   <i name="CSHIFT">     -0.10000000</i>
   <i type="logical" name="LSELFENERGY"> F  </i>
   <i type="logical" name="LSPECTRAL"> F  </i>
   <i type="logical" name="LSPECTRALGW"> F  </i>
   <i type="logical" name="LSINGLES"> F  </i>
   <i type="logical" name="LFERMIGW"> F  </i>
   <i type="logical" name="ODDONLYGW"> F  </i>
   <i type="logical" name="EVENONLYGW"> F  </i>
   <i type="int" name="NKREDLFX">     1</i>
   <i type="int" name="NKREDLFY">     1</i>
   <i type="int" name="NKREDLFZ">     1</i>
   <i type="int" name="MAXMEM">  2800</i>
   <i type="int" name="TELESCOPE">     0</i>
   <i type="int" name="NTAUPAR">    -1</i>
   <i type="int" name="NOMEGAPAR">    -1</i>
   <i name="DAMP_NEWTON">      0.80000001</i>
   <i name="LAMBDA">      1.00000000</i>
  </separator>
  <separator name="External order field" >
   <i name="OFIELD_KAPPA">      0.00000000</i>
   <v name="OFIELD_K">      0.00000000      0.00000000      0.00000000</v>
   <i name="OFIELD_Q6_NEAR">      0.00000000</i>
   <i name="OFIELD_Q6_FAR">      0.00000000</i>
   <i name="OFIELD_A">      0.00000000</i>
  </separator>
  <separator name="optional k-points parameters" >
   <i type="int" name="KPOINTS_OPT_MODE">     1</i>
   <i type="logical" name="LKPOINTS_OPT"> F  </i>
  </separator>
 </parameters>
 <atominfo>
  <atoms>      18 </atoms>
  <types>       1 </types>
  <array name="atoms" >
   <dimension dim="1">ion</dimension>
   <field type="string">element</field>
   <field type="int">atomtype</field>
   <set>
    <rc><c>C </c><c>   1</c></rc>
    <rc><c>C </c><c>   1</c></rc>
    <rc><c>C </c><c>   1</c></rc>
    <rc><c>C </c><c>   1</c></rc>
    <rc><c>C </c><c>   1</c></rc>
    <rc><c>C </c><c>   1</c></rc>
    <rc><c>C </c><c>   1</c></rc>
    <rc><c>C </c><c>   1</c></rc>
    <rc><c>C </c><c>   1</c></rc>
    <rc><c>C </c><c>   1</c></rc>
    <rc><c>C </c><c>   1</c></rc>
    <rc><c>C </c><c>   1</c></rc>
    <rc><c>C </c><c>   1</c></rc>
    <rc><c>C </c><c>   1</c></rc>
    <rc><c>C </c><c>   1</c></rc>
    <rc><c>C </c><c>   1</c></rc>
    <rc><c>C </c><c>   1</c></rc>
    <rc><c>C </c><c>   1</c></rc>
   </set>
  </array>
  <array name="atomtypes" >
   <dimension dim="1">type</dimension>
   <field type="int">atomspertype</field>
   <field type="string">element</field>
   <field>mass</field>
   <field>valence</field>
   <field type="string">pseudopotential</field>
   <set>
    <rc><c>  18</c><c>C </c><c>     12.01100000</c><c>      4.00000000</c><c>  PAW_PBE C 08Apr2002                   </c></rc>
   </set>
  </array>
 </atominfo>
 <structure name="initialpos" >
  <crystal>
   <varray name="basis" >
    <v>       7.40170591       0.00000000       0.00000000 </v>
    <v>      -3.70085295       6.41006527       0.00000000 </v>
    <v>       0.00000000       0.00000000      20.00000000 </v>
   </varray>
   <i name="volume">    948.90835877 </i>
   <varray name="rec_basis" >
    <v>       0.13510399       0.07800233       0.00000000 </v>
    <v>       0.00000000       0.15600465       0.00000000 </v>
    <v>       0.00000000       0.00000000       0.05000000 </v>
   </varray>
  </crystal>
  <varray name="positions" >
   <v>       0.00078002       0.00156005       0.50000000 </v>
   <v>       0.33411336       0.00156005       0.50000000 </v>
   <v>       0.66666667       0.00000000       0.50000000 </v>
   <v>       0.00000000       0.33333333       0.50000000 </v>
   <v>       0.33333333       0.33333333       0.50000000 </v>
   <v>       0.66666667       0.33333333       0.50000000 </v>
   <v>       0.00000000       0.66666667       0.50000000 </v>
   <v>       0.33333333       0.66666667       0.50000000 </v>
   <v>       0.66666667       0.66666667       0.50000000 </v>
   <v>       0.22222222       0.11111111       0.50000000 </v>
   <v>       0.55555556       0.11111111       0.50000000 </v>
   <v>       0.88888889       0.11111111       0.50000000 </v>
   <v>       0.22222222       0.44444444       0.50000000 </v>
   <v>       0.55555556       0.44444444       0.50000000 </v>
   <v>       0.88888889       0.44444444       0.50000000 </v>
   <v>       0.22222222       0.77777778       0.50000000 </v>
   <v>       0.55555556       0.77777778       0.50000000 </v>
   <v>       0.88888889       0.77777778       0.50000000 </v>
  </varray>
 </structure>
 <calculation>
  <scstep>
   <time name="dav">    3.79    3.94</time>
   <time name="total">    3.88    4.03</time>
   <energy>
    <i name="alphaZ">     28.04858418 </i>
    <i name="ewald">  11638.87791637 </i>
    <i name="hartreedc"> -13553.18352282 </i>
    <i name="XCdc">    237.17775612 </i>
    <i name="pawpsdc">   1953.39683484 </i>
    <i name="pawaedc">  -1963.64613940 </i>
    <i name="eentropy">     -0.01226524 </i>
    <i name="bandstr">   -254.86881826 </i>
    <i name="atom">   2648.70517965 </i>
    <i name="e_fr_energy">    734.49552545 </i>
    <i name="e_wo_entrp">    734.50779069 </i>
    <i name="e_0_energy">    734.50165807 </i>
   </energy>
  </scstep>
  <scstep>
   <time name="dav">    5.11    5.31</time>
   <time name="total">    5.11    5.31</time>
   <energy>
    <i name="e_fr_energy">    -25.07887486 </i>
    <i name="e_wo_entrp">    -25.07852699 </i>
    <i name="e_0_energy">    -25.07870093 </i>
   </energy>
  </scstep>
  <scstep>
   <time name="dav">    4.09    4.25</time>
   <time name="total">    4.09    4.25</time>
   <energy>
    <i name="e_fr_energy">   -172.43754840 </i>
    <i name="e_wo_entrp">   -172.43639001 </i>
    <i name="e_0_energy">   -172.43696920 </i>
   </energy>
  </scstep>
  <scstep>
   <time name="dav">    4.13    3.10</time>
   <time name="total">    4.13    3.10</time>
   <energy>
    <i name="e_fr_energy">   -177.35257394 </i>
    <i name="e_wo_entrp">   -177.35060196 </i>
    <i name="e_0_energy">   -177.35158795 </i>
   </energy>
  </scstep>
  <scstep>
   <time name="dav">    4.61    4.78</time>
   <time name="total">    4.79    4.96</time>
   <energy>
    <i name="e_fr_energy">   -177.48377931 </i>
    <i name="e_wo_entrp">   -177.48178107 </i>
    <i name="e_0_energy">   -177.48278019 </i>
   </energy>
  </scstep>
  <scstep>
   <time name="dav">    3.83    3.97</time>
   <time name="total">    4.08    4.23</time>
   <energy>
    <i name="e_fr_energy">   -169.31647151 </i>
    <i name="e_wo_entrp">   -169.31442521 </i>
    <i name="e_0_energy">   -169.31544836 </i>
   </energy>
  </scstep>
  <scstep>
   <time name="dav">    3.79    3.94</time>
   <time name="total">    4.05    4.20</time>
   <energy>
    <i name="e_fr_energy">   -166.14833844 </i>
    <i name="e_wo_entrp">   -166.14625964 </i>
    <i name="e_0_energy">   -166.14729904 </i>
   </energy>
  </scstep>
  <scstep>
   <time name="dav">    4.04    4.20</time>
   <time name="total">    4.30    4.47</time>
   <energy>
    <i name="e_fr_energy">   -166.08533328 </i>
    <i name="e_wo_entrp">   -166.08326390 </i>
    <i name="e_0_energy">   -166.08429859 </i>
   </energy>
  </scstep>
  <scstep>
   <time name="dav">    4.05    4.22</time>
   <time name="total">    4.32    4.49</time>
   <energy>
    <i name="e_fr_energy">   -166.07245762 </i>
    <i name="e_wo_entrp">   -166.07038592 </i>
    <i name="e_0_energy">   -166.07142177 </i>
   </energy>
  </scstep>
  <scstep>
   <time name="dav">    3.68    3.82</time>
   <time name="total">    3.94    4.10</time>
   <energy>
    <i name="e_fr_energy">   -166.05392478 </i>
    <i name="e_wo_entrp">   -166.05185108 </i>
    <i name="e_0_energy">   -166.05288793 </i>
   </energy>
  </scstep>
  <scstep>
   <time name="dav">    3.71    3.86</time>
   <time name="total">    3.97    4.13</time>
   <energy>
    <i name="e_fr_energy">   -166.05712674 </i>
    <i name="e_wo_entrp">   -166.05505373 </i>
    <i name="e_0_energy">   -166.05609024 </i>
   </energy>
  </scstep>
  <scstep>
   <time name="dav">    3.69    2.61</time>
   <time name="total">    3.97    2.89</time>
   <energy>
    <i name="e_fr_energy">   -166.06160006 </i>
    <i name="e_wo_entrp">   -166.05952747 </i>
    <i name="e_0_energy">   -166.06056376 </i>
   </energy>
  </scstep>
  <scstep>
   <time name="dav">    3.65    3.77</time>
   <time name="total">    3.91    4.04</time>
   <energy>
    <i name="e_fr_energy">   -166.06621314 </i>
    <i name="e_wo_entrp">   -166.06414027 </i>
    <i name="e_0_energy">   -166.06517670 </i>
   </energy>
  </scstep>
  <scstep>
   <time name="dav">    3.61    3.73</time>
   <time name="total">    3.87    4.00</time>
   <energy>
    <i name="e_fr_energy">   -166.06972704 </i>
    <i name="e_wo_entrp">   -166.06765408 </i>
    <i name="e_0_energy">   -166.06869056 </i>
   </energy>
  </scstep>
  <scstep>
   <time name="dav">    3.73    3.88</time>
   <time name="total">    3.99    4.16</time>
   <energy>
    <i name="e_fr_energy">   -166.07127341 </i>
    <i name="e_wo_entrp">   -166.06920039 </i>
    <i name="e_0_energy">   -166.07023690 </i>
   </energy>
  </scstep>
  <scstep>
   <time name="dav">    3.83    4.00</time>
   <time name="total">    4.10    4.27</time>
   <energy>
    <i name="e_fr_energy">   -166.07142827 </i>
    <i name="e_wo_entrp">   -166.06935528 </i>
    <i name="e_0_energy">   -166.07039177 </i>
   </energy>
  </scstep>
  <scstep>
   <time name="dav">    3.47    3.61</time>
   <time name="total">    3.73    3.88</time>
   <energy>
    <i name="e_fr_energy">   -166.07164167 </i>
    <i name="e_wo_entrp">   -166.06956877 </i>
    <i name="e_0_energy">   -166.07060522 </i>
   </energy>
  </scstep>
  <scstep>
   <time name="dav">    3.28    3.41</time>
   <time name="total">    3.54    3.68</time>
   <energy>
    <i name="e_fr_energy">   -166.07168808 </i>
    <i name="e_wo_entrp">   -166.06961514 </i>
    <i name="e_0_energy">   -166.07065161 </i>
   </energy>
  </scstep>
  <scstep>
   <time name="dav">    3.20    3.32</time>
   <time name="total">    3.47    3.61</time>
   <energy>
    <i name="e_fr_energy">   -166.07172492 </i>
    <i name="e_wo_entrp">   -166.06965195 </i>
    <i name="e_0_energy">   -166.07068843 </i>
   </energy>
  </scstep>
  <scstep>
   <time name="dav">    2.99    1.89</time>
   <time name="total">    3.25    2.17</time>
   <energy>
    <i name="e_fr_energy">   -166.07174922 </i>
    <i name="e_wo_entrp">   -166.06967627 </i>
    <i name="e_0_energy">   -166.07071275 </i>
   </energy>
  </scstep>
  <scstep>
   <time name="dav">    2.58    2.67</time>
   <time name="total">    2.84    2.94</time>
   <energy>
    <i name="e_fr_energy">   -166.07175750 </i>
    <i name="e_wo_entrp">   -166.06968454 </i>
    <i name="e_0_energy">   -166.07072102 </i>
   </energy>
  </scstep>
  <scstep>
   <time name="dav">    2.48    2.57</time>
   <time name="total">    2.74    2.84</time>
   <energy>
    <i name="e_fr_energy">   -166.07176106 </i>
    <i name="e_wo_entrp">   -166.06968811 </i>
    <i name="e_0_energy">   -166.07072458 </i>
   </energy>
  </scstep>
  <scstep>
   <time name="dav">    2.52    2.62</time>
   <time name="total">    2.60    2.70</time>
   <energy>
    <i name="alphaZ">     28.04858418 </i>
    <i name="ewald">  11638.87791637 </i>
    <i name="hartreedc"> -13861.52597621 </i>
    <i name="XCdc">    247.81448229 </i>
    <i name="pawpsdc">   7452.98741535 </i>
    <i name="pawaedc">  -7465.25085867 </i>
    <i name="eentropy">     -0.00207295 </i>
    <i name="bandstr">   -855.72643147 </i>
    <i name="atom">   2648.70517965 </i>
    <i name="e_fr_energy">   -166.07176145 </i>
    <i name="e_wo_entrp">   -166.06968850 </i>
    <i name="e_0_energy">   -166.07072497 </i>
   </energy>
  </scstep>
  <structure>
   <crystal>
    <varray name="basis" >
     <v>       7.40170591       0.00000000       0.00000000 </v>
     <v>      -3.70085295       6.41006527       0.00000000 </v>
     <v>       0.00000000       0.00000000      20.00000000 </v>
    </varray>
    <i name="volume">    948.90835877 </i>
    <varray name="rec_basis" >
     <v>       0.13510399       0.07800233       0.00000000 </v>
     <v>       0.00000000       0.15600465       0.00000000 </v>
     <v>       0.00000000       0.00000000       0.05000000 </v>
    </varray>
   </crystal>
   <varray name="positions" >
    <v>       0.00078002       0.00156005       0.50000000 </v>
    <v>       0.33411336       0.00156005       0.50000000 </v>
    <v>       0.66666667       0.00000000       0.50000000 </v>
    <v>       0.00000000       0.33333333       0.50000000 </v>
    <v>       0.33333333       0.33333333       0.50000000 </v>
    <v>       0.66666667       0.33333333       0.50000000 </v>
    <v>       0.00000000       0.66666667       0.50000000 </v>
    <v>       0.33333333       0.66666667       0.50000000 </v>
    <v>       0.66666667       0.66666667       0.50000000 </v>
    <v>       0.22222222       0.11111111       0.50000000 </v>
    <v>       0.55555556       0.11111111       0.50000000 </v>
    <v>       0.88888889       0.11111111       0.50000000 </v>
    <v>       0.22222222       0.44444444       0.50000000 </v>
    <v>       0.55555556       0.44444444       0.50000000 </v>
    <v>       0.88888889       0.44444444       0.50000000 </v>
    <v>       0.22222222       0.77777778       0.50000000 </v>
    <v>       0.55555556       0.77777778       0.50000000 </v>
    <v>       0.88888889       0.77777778       0.50000000 </v>
   </varray>
  </structure>
  <varray name="forces" >
   <v>      -0.01315859      -0.61467288      -0.00000000 </v>
   <v>       0.01315859      -0.61467288       0.00000000 </v>
   <v>      -0.00000000      -0.04844338      -0.00000000 </v>
   <v>      -0.01938022       0.06146379       0.00000000 </v>
   <v>       0.00000000       0.06376817      -0.00000000 </v>
   <v>       0.01938022       0.06146379      -0.00000000 </v>
   <v>       0.00000000       0.06269319      -0.00000000 </v>
   <v>      -0.04507807       0.06089969       0.00000000 </v>
   <v>       0.04507807       0.06089969       0.00000000 </v>
   <v>       0.00000000       0.27966369      -0.00000000 </v>
   <v>       0.05692376       0.11570034      -0.00000000 </v>
   <v>      -0.05692376       0.11570034      -0.00000000 </v>
   <v>      -0.00998082      -0.03756960      -0.00000000 </v>
   <v>       0.00998082      -0.03756960      -0.00000000 </v>
   <v>      -0.00000000      -0.01404693      -0.00000000 </v>
   <v>       0.02249462       0.23406596      -0.00000000 </v>
   <v>       0.00000000       0.01659064      -0.00000000 </v>
   <v>      -0.02249462       0.23406596      -0.00000000 </v>
  </varray>
  <varray name="stress" >
   <v>      -0.00382177      -0.00000000       0.00000000 </v>
   <v>      -0.00000000      -0.27449192       0.00000000 </v>
   <v>       0.00000000       0.00000000      -0.56072407 </v>
  </varray>
  <energy>
   <i name="e_fr_energy">   -166.07176145 </i>
   <i name="e_wo_entrp">   -166.06968850 </i>
   <i name="e_0_energy">   -166.07072497 </i>
  </energy>
  <time name="totalsc">   92.04   91.96</time>
  <eigenvalues>
   <array>
    <dimension dim="1">band</dimension>
    <dimension dim="2">kpoint</dimension>
    <dimension dim="3">spin</dimension>
    <field>eigene</field>
    <field>occ</field>
    <set>
     <set comment="spin 1">
      <set comment="kpoint 1">
       <r>  -22.2561    1.0000 </r>
       <r>  -19.6978    1.0000 </r>
       <r>  -19.6901    1.0000 </r>
       <r>  -19.6787    1.0000 </r>
       <r>  -19.6709    1.0000 </r>
       <r>  -19.6550    1.0000 </r>
       <r>  -19.6482    1.0000 </r>
       <r>  -15.3534    1.0000 </r>
       <r>  -15.3523    1.0000 </r>
       <r>  -15.3387    1.0000 </r>
       <r>  -15.3189    1.0000 </r>
       <r>  -13.2923    1.0000 </r>
       <r>  -13.2875    1.0000 </r>
       <r>  -12.4093    1.0000 </r>
       <r>  -12.3973    1.0000 </r>
       <r>  -12.3753    1.0000 </r>
       <r>  -12.3673    1.0000 </r>
       <r>  -12.3561    1.0000 </r>
       <r>  -12.3420    1.0000 </r>
       <r>  -10.3600    1.0000 </r>
       <r>   -8.5688    1.0000 </r>
       <r>   -8.5348    1.0000 </r>
       <r>   -8.5281    1.0000 </r>
       <r>   -8.5167    1.0000 </r>
       <r>   -8.5102    1.0000 </r>
       <r>   -8.4825    1.0000 </r>
       <r>   -7.3950    1.0000 </r>
       <r>   -7.3812    1.0000 </r>
       <r>   -7.3745    1.0000 </r>
       <r>   -7.3695    1.0000 </r>
       <r>   -7.3534    1.0000 </r>
       <r>   -7.3522    1.0000 </r>
       <r>   -5.8168    1.0000 </r>
       <r>   -5.7513    1.0000 </r>
       <r>   -2.7760    0.7207 </r>
       <r>   -2.7639    0.5956 </r>
       <r>   -2.7492    0.4304 </r>
       <r>   -2.7319    0.2533 </r>
       <r>    0.5196    0.0000 </r>
       <r>    1.3120    0.0000 </r>
       <r>    1.6354    0.0000 </r>
       <r>    2.1197    0.0000 </r>
       <r>    2.1232    0.0000 </r>
       <r>    2.1420    0.0000 </r>
       <r>    2.1528    0.0000 </r>
       <r>    2.1793    0.0000 </r>
      </set>
      <set comment="kpoint 2">
       <r>  -22.2025    1.0000 </r>
       <r>  -20.3498    1.0000 </r>
       <r>  -19.9909    1.0000 </r>
       <r>  -19.9773    1.0000 </r>
       <r>  -19.2694    1.0000 </r>
       <r>  -19.2556    1.0000 </r>
       <r>  -18.9060    1.0000 </r>
       <r>  -16.0036    1.0000 </r>
       <r>  -15.9881    1.0000 </r>
       <r>  -14.9247    1.0000 </r>
       <r>  -14.9000    1.0000 </r>
       <r>  -13.6038    1.0000 </r>
       <r>  -12.9796    1.0000 </r>
       <r>  -12.9661    1.0000 </r>
       <r>  -12.9596    1.0000 </r>
       <r>  -12.9432    1.0000 </r>
       <r>  -11.7421    1.0000 </r>
       <r>  -11.7210    1.0000 </r>
       <r>  -11.1237    1.0000 </r>
       <r>  -10.2960    1.0000 </r>
       <r>   -8.8831    1.0000 </r>
       <r>   -8.8597    1.0000 </r>
       <r>   -8.8144    1.0000 </r>
       <r>   -8.5263    1.0000 </r>
       <r>   -8.5023    1.0000 </r>
       <r>   -8.1262    1.0000 </r>
       <r>   -8.1211    1.0000 </r>
       <r>   -7.7208    1.0000 </r>
       <r>   -7.7083    1.0000 </r>
       <r>   -6.9303    1.0000 </r>
       <r>   -6.9172    1.0000 </r>
       <r>   -6.5536    1.0000 </r>
       <r>   -6.0254    1.0000 </r>
       <r>   -5.8784    1.0000 </r>
       <r>   -3.5384    1.0000 </r>
       <r>   -3.5155    1.0000 </r>
       <r>   -2.0181    0.0000 </r>
       <r>   -1.9903    0.0000 </r>
       <r>    0.5923    0.0000 </r>
       <r>    0.8671    0.0000 </r>
       <r>    1.3855    0.0000 </r>
       <r>    1.4638    0.0000 </r>
       <r>    1.4891    0.0000 </r>
       <r>    1.7098    0.0000 </r>
       <r>    2.6297    0.0000 </r>
       <r>    2.7546    0.0000 </r>
      </set>
      <set comment="kpoint 3">
       <r>  -22.2025    1.0000 </r>
       <r>  -20.3488    1.0000 </r>
       <r>  -19.9859    1.0000 </r>
       <r>  -19.9840    1.0000 </r>
       <r>  -19.2640    1.0000 </r>
       <r>  -19.2610    1.0000 </r>
       <r>  -18.9055    1.0000 </r>
       <r>  -15.9985    1.0000 </r>
       <r>  -15.9906    1.0000 </r>
       <r>  -14.9194    1.0000 </r>
       <r>  -14.9107    1.0000 </r>
       <r>  -13.5868    1.0000 </r>
       <r>  -12.9836    1.0000 </r>
       <r>  -12.9807    1.0000 </r>
       <r>  -12.9497    1.0000 </r>
       <r>  -12.9478    1.0000 </r>
       <r>  -11.7467    1.0000 </r>
       <r>  -11.7382    1.0000 </r>
       <r>  -11.1036    1.0000 </r>
       <r>  -10.2961    1.0000 </r>
       <r>   -8.8632    1.0000 </r>
       <r>   -8.8547    1.0000 </r>
       <r>   -8.8423    1.0000 </r>
       <r>   -8.5065    1.0000 </r>
       <r>   -8.4898    1.0000 </r>
       <r>   -8.1498    1.0000 </r>
       <r>   -8.1297    1.0000 </r>
       <r>   -7.7133    1.0000 </r>
       <r>   -7.7100    1.0000 </r>
       <r>   -6.9227    1.0000 </r>
       <r>   -6.9191    1.0000 </r>
       <r>   -6.5631    1.0000 </r>
       <r>   -5.9728    1.0000 </r>
       <r>   -5.9314    1.0000 </r>
       <r>   -3.5276    1.0000 </r>
       <r>   -3.5248    1.0000 </r>
       <r>   -2.0062    0.0000 </r>
       <r>   -2.0040    0.0000 </r>
       <r>    0.5923    0.0000 </r>
       <r>    0.8902    0.0000 </r>
       <r>    1.3856    0.0000 </r>
       <r>    1.4677    0.0000 </r>
       <r>    1.4700    0.0000 </r>
       <r>    1.7098    0.0000 </r>
       <r>    2.6297    0.0000 </r>
       <r>    2.7527    0.0000 </r>
      </set>
      <set comment="kpoint 4">
       <r>  -22.0420    1.0000 </r>
       <r>  -20.9271    1.0000 </r>
       <r>  -20.1993    1.0000 </r>
       <r>  -20.1858    1.0000 </r>
       <r>  -18.7624    1.0000 </r>
       <r>  -18.7485    1.0000 </r>
       <r>  -18.0627    1.0000 </r>
       <r>  -16.7527    1.0000 </r>
       <r>  -16.7385    1.0000 </r>
       <r>  -14.7591    1.0000 </r>
       <r>  -14.6343    1.0000 </r>
       <r>  -14.6112    1.0000 </r>
       <r>  -13.5065    1.0000 </r>
       <r>  -13.4876    1.0000 </r>
       <r>  -12.1969    1.0000 </r>
       <r>  -12.1736    1.0000 </r>
       <r>  -11.1027    1.0000 </r>
       <r>  -11.0825    1.0000 </r>
       <r>  -10.1047    1.0000 </r>
       <r>   -9.8683    1.0000 </r>
       <r>   -9.5119    1.0000 </r>
       <r>   -9.4855    1.0000 </r>
       <r>   -9.0300    1.0000 </r>
       <r>   -8.7911    1.0000 </r>
       <r>   -8.7789    1.0000 </r>
       <r>   -8.7564    1.0000 </r>
       <r>   -7.9519    1.0000 </r>
       <r>   -7.9397    1.0000 </r>
       <r>   -7.6604    1.0000 </r>
       <r>   -6.6375    1.0000 </r>
       <r>   -6.3856    1.0000 </r>
       <r>   -6.3713    1.0000 </r>
       <r>   -6.2002    1.0000 </r>
       <r>   -5.7599    1.0000 </r>
       <r>   -4.3095    1.0000 </r>
       <r>   -4.2893    1.0000 </r>
       <r>   -1.2967    0.0000 </r>
       <r>   -1.2674    0.0000 </r>
       <r>   -0.2476    0.0000 </r>
       <r>    0.7763    0.0000 </r>
       <r>    0.8037    0.0000 </r>
       <r>    0.8103    0.0000 </r>
       <r>    1.6064    0.0000 </r>
       <r>    1.9332    0.0000 </r>
       <r>    2.3341    0.0000 </r>
       <r>    2.8511    0.0000 </r>
      </set>
      <set comment="kpoint 5">
       <r>  -22.0420    1.0000 </r>
       <r>  -20.9263    1.0000 </r>
       <r>  -20.1943    1.0000 </r>
       <r>  -20.1924    1.0000 </r>
       <r>  -18.7570    1.0000 </r>
       <r>  -18.7537    1.0000 </r>
       <r>  -18.0633    1.0000 </r>
       <r>  -16.7475    1.0000 </r>
       <r>  -16.7411    1.0000 </r>
       <r>  -14.7431    1.0000 </r>
       <r>  -14.6303    1.0000 </r>
       <r>  -14.6241    1.0000 </r>
       <r>  -13.5072    1.0000 </r>
       <r>  -13.5008    1.0000 </r>
       <r>  -12.1823    1.0000 </r>
       <r>  -12.1804    1.0000 </r>
       <r>  -11.1138    1.0000 </r>
       <r>  -11.1043    1.0000 </r>
       <r>  -10.1050    1.0000 </r>
       <r>   -9.8439    1.0000 </r>
       <r>   -9.4943    1.0000 </r>
       <r>   -9.4840    1.0000 </r>
       <r>   -9.0541    1.0000 </r>
       <r>   -8.7933    1.0000 </r>
       <r>   -8.7546    1.0000 </r>
       <r>   -8.7393    1.0000 </r>
       <r>   -7.9445    1.0000 </r>
       <r>   -7.9411    1.0000 </r>
       <r>   -7.6921    1.0000 </r>
       <r>   -6.5939    1.0000 </r>
       <r>   -6.3776    1.0000 </r>
       <r>   -6.3742    1.0000 </r>
       <r>   -6.2453    1.0000 </r>
       <r>   -5.7749    1.0000 </r>
       <r>   -4.2995    1.0000 </r>
       <r>   -4.2962    1.0000 </r>
       <r>   -1.2849    0.0000 </r>
       <r>   -1.2836    0.0000 </r>
       <r>   -0.2182    0.0000 </r>
       <r>    0.7833    0.0000 </r>
       <r>    0.7846    0.0000 </r>
       <r>    0.8102    0.0000 </r>
       <r>    1.6063    0.0000 </r>
       <r>    1.9332    0.0000 </r>
       <r>    2.3341    0.0000 </r>
       <r>    2.8511    0.0000 </r>
      </set>
      <set comment="kpoint 6">
       <r>  -21.7752    1.0000 </r>
       <r>  -21.4031    1.0000 </r>
       <r>  -20.3038    1.0000 </r>
       <r>  -20.2903    1.0000 </r>
       <r>  -18.1654    1.0000 </r>
       <r>  -18.1516    1.0000 </r>
       <r>  -17.4887    1.0000 </r>
       <r>  -17.4750    1.0000 </r>
       <r>  -17.2262    1.0000 </r>
       <r>  -15.7531    1.0000 </r>
       <r>  -14.3307    1.0000 </r>
       <r>  -14.3103    1.0000 </r>
       <r>  -13.9585    1.0000 </r>
       <r>  -13.9392    1.0000 </r>
       <r>  -11.2732    1.0000 </r>
       <r>  -11.2484    1.0000 </r>
       <r>  -10.5960    1.0000 </r>
       <r>  -10.5814    1.0000 </r>
       <r>  -10.3431    1.0000 </r>
       <r>  -10.3173    1.0000 </r>
       <r>   -9.7876    1.0000 </r>
       <r>   -9.3480    1.0000 </r>
       <r>   -9.1379    1.0000 </r>
       <r>   -9.1066    1.0000 </r>
       <r>   -9.0926    1.0000 </r>
       <r>   -8.6557    1.0000 </r>
       <r>   -8.0682    1.0000 </r>
       <r>   -8.0562    1.0000 </r>
       <r>   -7.5506    1.0000 </r>
       <r>   -7.1563    1.0000 </r>
       <r>   -6.6502    1.0000 </r>
       <r>   -5.7558    1.0000 </r>
       <r>   -5.7402    1.0000 </r>
       <r>   -5.1914    1.0000 </r>
       <r>   -5.0567    1.0000 </r>
       <r>   -5.0382    1.0000 </r>
       <r>   -0.9826    0.0000 </r>
       <r>   -0.5981    0.0000 </r>
       <r>   -0.5689    0.0000 </r>
       <r>    0.0893    0.0000 </r>
       <r>    0.1181    0.0000 </r>
       <r>    1.1735    0.0000 </r>
       <r>    1.6817    0.0000 </r>
       <r>    1.9738    0.0000 </r>
       <r>    2.3056    0.0000 </r>
       <r>    2.4868    0.0000 </r>
      </set>
      <set comment="kpoint 7">
       <r>  -21.7753    1.0000 </r>
       <r>  -21.4022    1.0000 </r>
       <r>  -20.2989    1.0000 </r>
       <r>  -20.2970    1.0000 </r>
       <r>  -18.1602    1.0000 </r>
       <r>  -18.1567    1.0000 </r>
       <r>  -17.4834    1.0000 </r>
       <r>  -17.4775    1.0000 </r>
       <r>  -17.2332    1.0000 </r>
       <r>  -15.7311    1.0000 </r>
       <r>  -14.3295    1.0000 </r>
       <r>  -14.3233    1.0000 </r>
       <r>  -13.9578    1.0000 </r>
       <r>  -13.9514    1.0000 </r>
       <r>  -11.2577    1.0000 </r>
       <r>  -11.2526    1.0000 </r>
       <r>  -10.6204    1.0000 </r>
       <r>  -10.6099    1.0000 </r>
       <r>  -10.3266    1.0000 </r>
       <r>  -10.3187    1.0000 </r>
       <r>   -9.7885    1.0000 </r>
       <r>   -9.3490    1.0000 </r>
       <r>   -9.1596    1.0000 </r>
       <r>   -9.0774    1.0000 </r>
       <r>   -9.0626    1.0000 </r>
       <r>   -8.6261    1.0000 </r>
       <r>   -8.0609    1.0000 </r>
       <r>   -8.0575    1.0000 </r>
       <r>   -7.5135    1.0000 </r>
       <r>   -7.1936    1.0000 </r>
       <r>   -6.6883    1.0000 </r>
       <r>   -5.7473    1.0000 </r>
       <r>   -5.7443    1.0000 </r>
       <r>   -5.2129    1.0000 </r>
       <r>   -5.0472    1.0000 </r>
       <r>   -5.0436    1.0000 </r>
       <r>   -0.9460    0.0000 </r>
       <r>   -0.5872    0.0000 </r>
       <r>   -0.5868    0.0000 </r>
       <r>    0.0991    0.0000 </r>
       <r>    0.0992    0.0000 </r>
       <r>    1.1734    0.0000 </r>
       <r>    1.6817    0.0000 </r>
       <r>    1.9737    0.0000 </r>
       <r>    2.3056    0.0000 </r>
       <r>    2.4866    0.0000 </r>
      </set>
      <set comment="kpoint 8">
       <r>  -22.0955    1.0000 </r>
       <r>  -20.6144    1.0000 </r>
       <r>  -20.6078    1.0000 </r>
       <r>  -19.5242    1.0000 </r>
       <r>  -19.5153    1.0000 </r>
       <r>  -18.4582    1.0000 </r>
       <r>  -18.4514    1.0000 </r>
       <r>  -16.7792    1.0000 </r>
       <r>  -16.1570    1.0000 </r>
       <r>  -15.2504    1.0000 </r>
       <r>  -14.2499    1.0000 </r>
       <r>  -14.1644    1.0000 </r>
       <r>  -14.1462    1.0000 </r>
       <r>  -12.6117    1.0000 </r>
       <r>  -12.3181    1.0000 </r>
       <r>  -12.3109    1.0000 </r>
       <r>  -12.2623    1.0000 </r>
       <r>  -10.4976    1.0000 </r>
       <r>  -10.4698    1.0000 </r>
       <r>  -10.1685    1.0000 </r>
       <r>   -9.1759    1.0000 </r>
       <r>   -9.1672    1.0000 </r>
       <r>   -9.1391    1.0000 </r>
       <r>   -9.1106    1.0000 </r>
       <r>   -8.4294    1.0000 </r>
       <r>   -8.4234    1.0000 </r>
       <r>   -8.0947    1.0000 </r>
       <r>   -8.0609    1.0000 </r>
       <r>   -7.1932    1.0000 </r>
       <r>   -7.1850    1.0000 </r>
       <r>   -6.3952    1.0000 </r>
       <r>   -6.1443    1.0000 </r>
       <r>   -6.1127    1.0000 </r>
       <r>   -6.1006    1.0000 </r>
       <r>   -4.2624    1.0000 </r>
       <r>   -3.8918    1.0000 </r>
       <r>   -1.7207    0.0000 </r>
       <r>   -1.2581    0.0000 </r>
       <r>    0.2655    0.0000 </r>
       <r>    0.2907    0.0000 </r>
       <r>    0.7376    0.0000 </r>
       <r>    1.5328    0.0000 </r>
       <r>    1.8588    0.0000 </r>
       <r>    1.9997    0.0000 </r>
       <r>    2.0127    0.0000 </r>
       <r>    2.7773    0.0000 </r>
      </set>
      <set comment="kpoint 9">
       <r>  -22.0955    1.0000 </r>
       <r>  -20.6243    1.0000 </r>
       <r>  -20.5981    1.0000 </r>
       <r>  -19.5366    1.0000 </r>
       <r>  -19.5012    1.0000 </r>
       <r>  -18.4689    1.0000 </r>
       <r>  -18.4415    1.0000 </r>
       <r>  -16.7780    1.0000 </r>
       <r>  -16.1711    1.0000 </r>
       <r>  -15.2206    1.0000 </r>
       <r>  -14.2678    1.0000 </r>
       <r>  -14.1841    1.0000 </r>
       <r>  -14.1443    1.0000 </r>
       <r>  -12.5922    1.0000 </r>
       <r>  -12.3078    1.0000 </r>
       <r>  -12.2864    1.0000 </r>
       <r>  -12.2784    1.0000 </r>
       <r>  -10.5163    1.0000 </r>
       <r>  -10.4675    1.0000 </r>
       <r>  -10.1683    1.0000 </r>
       <r>   -9.2168    1.0000 </r>
       <r>   -9.1700    1.0000 </r>
       <r>   -9.1296    1.0000 </r>
       <r>   -9.1003    1.0000 </r>
       <r>   -8.4358    1.0000 </r>
       <r>   -8.4153    1.0000 </r>
       <r>   -8.0896    1.0000 </r>
       <r>   -8.0451    1.0000 </r>
       <r>   -7.2107    1.0000 </r>
       <r>   -7.1783    1.0000 </r>
       <r>   -6.4385    1.0000 </r>
       <r>   -6.1097    1.0000 </r>
       <r>   -6.0999    1.0000 </r>
       <r>   -6.0902    1.0000 </r>
       <r>   -4.2488    1.0000 </r>
       <r>   -3.9144    1.0000 </r>
       <r>   -1.6899    0.0000 </r>
       <r>   -1.2791    0.0000 </r>
       <r>    0.2504    0.0000 </r>
       <r>    0.2760    0.0000 </r>
       <r>    0.7376    0.0000 </r>
       <r>    1.5328    0.0000 </r>
       <r>    1.8588    0.0000 </r>
       <r>    2.0021    0.0000 </r>
       <r>    2.0446    0.0000 </r>
       <r>    2.7774    0.0000 </r>
      </set>
      <set comment="kpoint 10">
       <r>  -21.8818    1.0000 </r>
       <r>  -21.1383    1.0000 </r>
       <r>  -20.7685    1.0000 </r>
       <r>  -19.6744    1.0000 </r>
       <r>  -18.9589    1.0000 </r>
       <r>  -17.9172    1.0000 </r>
       <r>  -17.5942    1.0000 </r>
       <r>  -17.5715    1.0000 </r>
       <r>  -16.6686    1.0000 </r>
       <r>  -15.2635    1.0000 </r>
       <r>  -15.2548    1.0000 </r>
       <r>  -14.6239    1.0000 </r>
       <r>  -13.7169    1.0000 </r>
       <r>  -12.8302    1.0000 </r>
       <r>  -11.9111    1.0000 </r>
       <r>  -11.6827    1.0000 </r>
       <r>  -11.3814    1.0000 </r>
       <r>  -10.0288    1.0000 </r>
       <r>   -9.9144    1.0000 </r>
       <r>   -9.9002    1.0000 </r>
       <r>   -9.7259    1.0000 </r>
       <r>   -9.6294    1.0000 </r>
       <r>   -9.2825    1.0000 </r>
       <r>   -9.2694    1.0000 </r>
       <r>   -9.0368    1.0000 </r>
       <r>   -8.6081    1.0000 </r>
       <r>   -8.2780    1.0000 </r>
       <r>   -7.5633    1.0000 </r>
       <r>   -7.3546    1.0000 </r>
       <r>   -7.1407    1.0000 </r>
       <r>   -6.5637    1.0000 </r>
       <r>   -6.5475    1.0000 </r>
       <r>   -5.5913    1.0000 </r>
       <r>   -5.3800    1.0000 </r>
       <r>   -5.0791    1.0000 </r>
       <r>   -4.4242    1.0000 </r>
       <r>   -1.3098    0.0000 </r>
       <r>   -0.6952    0.0000 </r>
       <r>   -0.4157    0.0000 </r>
       <r>   -0.2785    0.0000 </r>
       <r>    1.0283    0.0000 </r>
       <r>    1.2131    0.0000 </r>
       <r>    1.8269    0.0000 </r>
       <r>    2.0448    0.0000 </r>
       <r>    2.1567    0.0000 </r>
       <r>    2.4049    0.0000 </r>
      </set>
      <set comment="kpoint 11">
       <r>  -21.8818    1.0000 </r>
       <r>  -21.1375    1.0000 </r>
       <r>  -20.7693    1.0000 </r>
       <r>  -19.6752    1.0000 </r>
       <r>  -18.9581    1.0000 </r>
       <r>  -17.9166    1.0000 </r>
       <r>  -17.5970    1.0000 </r>
       <r>  -17.5708    1.0000 </r>
       <r>  -16.6684    1.0000 </r>
       <r>  -15.2590    1.0000 </r>
       <r>  -15.2403    1.0000 </r>
       <r>  -14.6398    1.0000 </r>
       <r>  -13.7257    1.0000 </r>
       <r>  -12.8240    1.0000 </r>
       <r>  -11.9009    1.0000 </r>
       <r>  -11.6957    1.0000 </r>
       <r>  -11.3831    1.0000 </r>
       <r>  -10.0368    1.0000 </r>
       <r>   -9.9317    1.0000 </r>
       <r>   -9.9147    1.0000 </r>
       <r>   -9.7060    1.0000 </r>
       <r>   -9.6133    1.0000 </r>
       <r>   -9.2978    1.0000 </r>
       <r>   -9.2460    1.0000 </r>
       <r>   -9.0386    1.0000 </r>
       <r>   -8.6055    1.0000 </r>
       <r>   -8.2406    1.0000 </r>
       <r>   -7.6008    1.0000 </r>
       <r>   -7.3514    1.0000 </r>
       <r>   -7.1201    1.0000 </r>
       <r>   -6.5691    1.0000 </r>
       <r>   -6.5674    1.0000 </r>
       <r>   -5.5781    1.0000 </r>
       <r>   -5.3980    1.0000 </r>
       <r>   -5.0757    1.0000 </r>
       <r>   -4.4273    1.0000 </r>
       <r>   -1.3049    0.0000 </r>
       <r>   -0.6636    0.0000 </r>
       <r>   -0.4212    0.0000 </r>
       <r>   -0.3047    0.0000 </r>
       <r>    1.0282    0.0000 </r>
       <r>    1.2242    0.0000 </r>
       <r>    1.8268    0.0000 </r>
       <r>    2.0446    0.0000 </r>
       <r>    2.1567    0.0000 </r>
       <r>    2.3923    0.0000 </r>
      </set>
      <set comment="kpoint 12">
       <r>  -21.8819    1.0000 </r>
       <r>  -21.1385    1.0000 </r>
       <r>  -20.7684    1.0000 </r>
       <r>  -19.6744    1.0000 </r>
       <r>  -18.9573    1.0000 </r>
       <r>  -17.9174    1.0000 </r>
       <r>  -17.5947    1.0000 </r>
       <r>  -17.5708    1.0000 </r>
       <r>  -16.6763    1.0000 </r>
       <r>  -15.2618    1.0000 </r>
       <r>  -15.2329    1.0000 </r>
       <r>  -14.6404    1.0000 </r>
       <r>  -13.7396    1.0000 </r>
       <r>  -12.8094    1.0000 </r>
       <r>  -11.8853    1.0000 </r>
       <r>  -11.6692    1.0000 </r>
       <r>  -11.4018    1.0000 </r>
       <r>  -10.0561    1.0000 </r>
       <r>   -9.9185    1.0000 </r>
       <r>   -9.9140    1.0000 </r>
       <r>   -9.7032    1.0000 </r>
       <r>   -9.6446    1.0000 </r>
       <r>   -9.2794    1.0000 </r>
       <r>   -9.2635    1.0000 </r>
       <r>   -9.0376    1.0000 </r>
       <r>   -8.6067    1.0000 </r>
       <r>   -8.2581    1.0000 </r>
       <r>   -7.5717    1.0000 </r>
       <r>   -7.3570    1.0000 </r>
       <r>   -7.1672    1.0000 </r>
       <r>   -6.5715    1.0000 </r>
       <r>   -6.5201    1.0000 </r>
       <r>   -5.5761    1.0000 </r>
       <r>   -5.3787    1.0000 </r>
       <r>   -5.0669    1.0000 </r>
       <r>   -4.4467    1.0000 </r>
       <r>   -1.2753    0.0000 </r>
       <r>   -0.6978    0.0000 </r>
       <r>   -0.4386    0.0000 </r>
       <r>   -0.3088    0.0000 </r>
       <r>    1.0283    0.0000 </r>
       <r>    1.2358    0.0000 </r>
       <r>    1.8269    0.0000 </r>
       <r>    2.0446    0.0000 </r>
       <r>    2.1567    0.0000 </r>
       <r>    2.4122    0.0000 </r>
      </set>
      <set comment="kpoint 13">
       <r>  -21.5656    1.0000 </r>
       <r>  -21.5592    1.0000 </r>
       <r>  -20.8212    1.0000 </r>
       <r>  -19.7261    1.0000 </r>
       <r>  -18.3109    1.0000 </r>
       <r>  -18.3016    1.0000 </r>
       <r>  -17.3132    1.0000 </r>
       <r>  -17.3035    1.0000 </r>
       <r>  -16.9826    1.0000 </r>
       <r>  -15.9482    1.0000 </r>
       <r>  -15.0169    1.0000 </r>
       <r>  -14.9967    1.0000 </r>
       <r>  -13.2930    1.0000 </r>
       <r>  -13.2700    1.0000 </r>
       <r>  -11.3495    1.0000 </r>
       <r>  -11.0019    1.0000 </r>
       <r>  -10.9751    1.0000 </r>
       <r>  -10.5142    1.0000 </r>
       <r>  -10.4919    1.0000 </r>
       <r>   -9.9157    1.0000 </r>
       <r>   -9.6242    1.0000 </r>
       <r>   -9.5384    1.0000 </r>
       <r>   -9.5331    1.0000 </r>
       <r>   -9.3283    1.0000 </r>
       <r>   -8.6679    1.0000 </r>
       <r>   -8.4312    1.0000 </r>
       <r>   -8.1448    1.0000 </r>
       <r>   -8.1253    1.0000 </r>
       <r>   -7.4106    1.0000 </r>
       <r>   -7.0523    1.0000 </r>
       <r>   -7.0290    1.0000 </r>
       <r>   -5.8618    1.0000 </r>
       <r>   -5.8493    1.0000 </r>
       <r>   -5.0572    1.0000 </r>
       <r>   -5.0248    1.0000 </r>
       <r>   -5.0020    1.0000 </r>
       <r>   -1.1023    0.0000 </r>
       <r>   -0.8359    0.0000 </r>
       <r>   -0.8026    0.0000 </r>
       <r>    0.3978    0.0000 </r>
       <r>    0.4224    0.0000 </r>
       <r>    1.4638    0.0000 </r>
       <r>    1.4645    0.0000 </r>
       <r>    2.2671    0.0000 </r>
       <r>    2.2674    0.0000 </r>
       <r>    2.4841    0.0000 </r>
      </set>
      <set comment="kpoint 14">
       <r>  -21.5748    1.0000 </r>
       <r>  -21.5491    1.0000 </r>
       <r>  -20.8220    1.0000 </r>
       <r>  -19.7270    1.0000 </r>
       <r>  -18.3245    1.0000 </r>
       <r>  -18.2872    1.0000 </r>
       <r>  -17.3260    1.0000 </r>
       <r>  -17.2870    1.0000 </r>
       <r>  -16.9950    1.0000 </r>
       <r>  -15.9210    1.0000 </r>
       <r>  -15.0289    1.0000 </r>
       <r>  -15.0017    1.0000 </r>
       <r>  -13.2974    1.0000 </r>
       <r>  -13.2690    1.0000 </r>
       <r>  -11.3763    1.0000 </r>
       <r>  -10.9982    1.0000 </r>
       <r>  -10.9756    1.0000 </r>
       <r>  -10.5051    1.0000 </r>
       <r>  -10.4832    1.0000 </r>
       <r>   -9.8845    1.0000 </r>
       <r>   -9.6568    1.0000 </r>
       <r>   -9.5471    1.0000 </r>
       <r>   -9.5261    1.0000 </r>
       <r>   -9.3508    1.0000 </r>
       <r>   -8.6659    1.0000 </r>
       <r>   -8.3949    1.0000 </r>
       <r>   -8.1289    1.0000 </r>
       <r>   -8.0775    1.0000 </r>
       <r>   -7.4063    1.0000 </r>
       <r>   -7.1080    1.0000 </r>
       <r>   -7.0449    1.0000 </r>
       <r>   -5.8720    1.0000 </r>
       <r>   -5.8407    1.0000 </r>
       <r>   -5.0788    1.0000 </r>
       <r>   -5.0218    1.0000 </r>
       <r>   -4.9939    1.0000 </r>
       <r>   -1.0643    0.0000 </r>
       <r>   -0.8416    0.0000 </r>
       <r>   -0.8190    0.0000 </r>
       <r>    0.3983    0.0000 </r>
       <r>    0.4262    0.0000 </r>
       <r>    1.4626    0.0000 </r>
       <r>    1.4656    0.0000 </r>
       <r>    2.2666    0.0000 </r>
       <r>    2.2677    0.0000 </r>
       <r>    2.6034    0.0000 </r>
      </set>
      <set comment="kpoint 15">
       <r>  -21.6157    1.0000 </r>
       <r>  -21.2470    1.0000 </r>
       <r>  -21.2404    1.0000 </r>
       <r>  -19.0650    1.0000 </r>
       <r>  -19.0562    1.0000 </r>
       <r>  -18.3550    1.0000 </r>
       <r>  -17.0950    1.0000 </r>
       <r>  -17.0859    1.0000 </r>
       <r>  -16.7067    1.0000 </r>
       <r>  -15.6871    1.0000 </r>
       <r>  -15.6209    1.0000 </r>
       <r>  -15.5987    1.0000 </r>
       <r>  -12.9108    1.0000 </r>
       <r>  -12.2787    1.0000 </r>
       <r>  -12.2596    1.0000 </r>
       <r>  -11.3629    1.0000 </r>
       <r>  -10.5553    1.0000 </r>
       <r>  -10.5513    1.0000 </r>
       <r>  -10.5294    1.0000 </r>
       <r>   -9.8345    1.0000 </r>
       <r>   -9.8119    1.0000 </r>
       <r>   -9.5993    1.0000 </r>
       <r>   -9.1636    1.0000 </r>
       <r>   -9.1582    1.0000 </r>
       <r>   -8.8443    1.0000 </r>
       <r>   -8.8044    1.0000 </r>
       <r>   -7.8704    1.0000 </r>
       <r>   -7.7062    1.0000 </r>
       <r>   -7.6607    1.0000 </r>
       <r>   -7.0942    1.0000 </r>
       <r>   -6.6684    1.0000 </r>
       <r>   -6.6589    1.0000 </r>
       <r>   -5.8959    1.0000 </r>
       <r>   -5.0199    1.0000 </r>
       <r>   -4.9986    1.0000 </r>
       <r>   -4.6649    1.0000 </r>
       <r>   -1.2403    0.0000 </r>
       <r>   -1.0351    0.0000 </r>
       <r>   -1.0005    0.0000 </r>
       <r>    0.5346    0.0000 </r>
       <r>    1.3916    0.0000 </r>
       <r>    1.4694    0.0000 </r>
       <r>    1.4879    0.0000 </r>
       <r>    1.8998    0.0000 </r>
       <r>    1.9005    0.0000 </r>
       <r>    2.1940    0.0000 </r>
      </set>
      <set comment="kpoint 16">
       <r>  -21.6156    1.0000 </r>
       <r>  -21.2567    1.0000 </r>
       <r>  -21.2308    1.0000 </r>
       <r>  -19.0778    1.0000 </r>
       <r>  -19.0417    1.0000 </r>
       <r>  -18.3564    1.0000 </r>
       <r>  -17.1003    1.0000 </r>
       <r>  -17.0732    1.0000 </r>
       <r>  -16.7200    1.0000 </r>
       <r>  -15.6588    1.0000 </r>
       <r>  -15.6352    1.0000 </r>
       <r>  -15.6073    1.0000 </r>
       <r>  -12.9332    1.0000 </r>
       <r>  -12.2655    1.0000 </r>
       <r>  -12.2383    1.0000 </r>
       <r>  -11.3369    1.0000 </r>
       <r>  -10.5850    1.0000 </r>
       <r>  -10.5690    1.0000 </r>
       <r>  -10.5427    1.0000 </r>
       <r>   -9.8246    1.0000 </r>
       <r>   -9.7997    1.0000 </r>
       <r>   -9.5982    1.0000 </r>
       <r>   -9.1718    1.0000 </r>
       <r>   -9.1509    1.0000 </r>
       <r>   -8.8436    1.0000 </r>
       <r>   -8.7919    1.0000 </r>
       <r>   -7.9089    1.0000 </r>
       <r>   -7.7163    1.0000 </r>
       <r>   -7.6637    1.0000 </r>
       <r>   -7.0538    1.0000 </r>
       <r>   -6.6835    1.0000 </r>
       <r>   -6.6515    1.0000 </r>
       <r>   -5.8884    1.0000 </r>
       <r>   -5.0079    1.0000 </r>
       <r>   -4.9867    1.0000 </r>
       <r>   -4.6883    1.0000 </r>
       <r>   -1.2037    0.0000 </r>
       <r>   -1.0492    0.0000 </r>
       <r>   -1.0256    0.0000 </r>
       <r>    0.5156    0.0000 </r>
       <r>    1.3918    0.0000 </r>
       <r>    1.4723    0.0000 </r>
       <r>    1.5090    0.0000 </r>
       <r>    1.8986    0.0000 </r>
       <r>    1.9016    0.0000 </r>
       <r>    2.1941    0.0000 </r>
      </set>
     </set>
    </set>
   </array>
  </eigenvalues>
  <separator name="orbital magnetization" >
   <v name="MAGDIPOLOUT">      0.00000000      0.00000000      0.00000000</v>
  </separator>
  <dos>
   <i name="efermi">     -2.75535185 </i>
   <total>
    <array>
     <dimension dim="1">gridpoints</dimension>
     <dimension dim="2">spin</dimension>
     <field>energy</field>
     <field>total</field>
     <field>integrated</field>
     <set>
      <set comment="spin 1">
       <r>   -23.5114     0.0000     0.0000 </r>
       <r>   -23.4194     0.0000     0.0000 </r>
       <r>   -23.3273     0.0000     0.0000 </r>
       <r>   -23.2353     0.0000     0.0000 </r>
       <r>   -23.1432     0.0000     0.0000 </r>
       <r>   -23.0511     0.0000     0.0000 </r>
       <r>   -22.9591     0.0000     0.0000 </r>
       <r>   -22.8670     0.0000     0.0000 </r>
       <r>   -22.7750     0.0000     0.0000 </r>
       <r>   -22.6829     0.0000     0.0000 </r>
       <r>   -22.5908     0.0000     0.0000 </r>
       <r>   -22.4988     0.0000     0.0000 </r>
       <r>   -22.4067     0.0000     0.0000 </r>
       <r>   -22.3147     0.0236     0.0022 </r>
       <r>   -22.2226     1.1018     0.1036 </r>
       <r>   -22.1305     2.3661     0.3214 </r>
       <r>   -22.0385     3.5658     0.6497 </r>
       <r>   -21.9464     1.5377     0.7913 </r>
       <r>   -21.8544     4.0205     1.1614 </r>
       <r>   -21.7623     2.8379     1.4226 </r>
       <r>   -21.6702     1.1180     1.5256 </r>
       <r>   -21.5782     3.8645     1.8813 </r>
       <r>   -21.4861     3.8786     2.2384 </r>
       <r>   -21.3941     1.6590     2.3911 </r>
       <r>   -21.3020     1.3524     2.5156 </r>
       <r>   -21.2099     4.2168     2.9038 </r>
       <r>   -21.1179     4.6326     3.3303 </r>
       <r>   -21.0258     1.5136     3.4696 </r>
       <r>   -20.9338     1.1226     3.5730 </r>
       <r>   -20.8417     2.3712     3.7913 </r>
       <r>   -20.7496     5.5205     4.2995 </r>
       <r>   -20.6576     2.1520     4.4976 </r>
       <r>   -20.5655     4.2380     4.8878 </r>
       <r>   -20.4735     0.5544     4.9388 </r>
       <r>   -20.3814     0.5371     4.9882 </r>
       <r>   -20.2893     5.1553     5.4628 </r>
       <r>   -20.1973     4.6696     5.8927 </r>
       <r>   -20.1052     2.9024     6.1599 </r>
       <r>   -20.0132     1.1573     6.2665 </r>
       <r>   -19.9211     3.9944     6.6342 </r>
       <r>   -19.8291     0.2102     6.6535 </r>
       <r>   -19.7370     1.3624     6.7789 </r>
       <r>   -19.6449     7.5520     7.4742 </r>
       <r>   -19.5529     2.6932     7.7221 </r>
       <r>   -19.4608     4.0482     8.0948 </r>
       <r>   -19.3688     0.3083     8.1232 </r>
       <r>   -19.2767     1.8322     8.2918 </r>
       <r>   -19.1846     3.4034     8.6052 </r>
       <r>   -19.0926     1.0991     8.7063 </r>
       <r>   -19.0005     4.6369     9.1332 </r>
       <r>   -18.9085     5.8053     9.6676 </r>
       <r>   -18.8164     2.0575     9.8571 </r>
       <r>   -18.7243     4.0747    10.2322 </r>
       <r>   -18.6323     1.0233    10.3264 </r>
       <r>   -18.5402     0.0519    10.3312 </r>
       <r>   -18.4482     3.0150    10.6087 </r>
       <r>   -18.3561     4.0246    10.9792 </r>
       <r>   -18.2640     5.5214    11.4875 </r>
       <r>   -18.1720     2.5710    11.7242 </r>
       <r>   -18.0799     4.2020    12.1111 </r>
       <r>   -17.9879     1.9725    12.2926 </r>
       <r>   -17.8958     3.7878    12.6413 </r>
       <r>   -17.8037     1.4538    12.7752 </r>
       <r>   -17.7117     0.0064    12.7758 </r>
       <r>   -17.6196     1.7560    12.9374 </r>
       <r>   -17.5276     8.6775    13.7363 </r>
       <r>   -17.4355     4.9927    14.1959 </r>
       <r>   -17.3434     1.4363    14.3281 </r>
       <r>   -17.2514     4.7575    14.7661 </r>
       <r>   -17.1593     2.3941    14.9865 </r>
       <r>   -17.0673     3.8251    15.3386 </r>
       <r>   -16.9752     3.0812    15.6223 </r>
       <r>   -16.8831     0.9987    15.7142 </r>
       <r>   -16.7911     1.5395    15.8560 </r>
       <r>   -16.6990     8.7107    16.6579 </r>
       <r>   -16.6070     5.5169    17.1658 </r>
       <r>   -16.5149     0.1946    17.1837 </r>
       <r>   -16.4228     0.0000    17.1837 </r>
       <r>   -16.3308     0.0000    17.1837 </r>
       <r>   -16.2387     0.0433    17.1877 </r>
       <r>   -16.1467     1.7182    17.3458 </r>
       <r>   -16.0546     1.1639    17.4530 </r>
       <r>   -15.9625     4.8083    17.8956 </r>
       <r>   -15.8705     2.8141    18.1547 </r>
       <r>   -15.7784     0.6018    18.2101 </r>
       <r>   -15.6864     3.2480    18.5091 </r>
       <r>   -15.5943     5.2214    18.9898 </r>
       <r>   -15.5023     1.6551    19.1421 </r>
       <r>   -15.4102     0.0661    19.1482 </r>
       <r>   -15.3181     1.6745    19.3024 </r>
       <r>   -15.2261     9.8299    20.2073 </r>
       <r>   -15.1340     3.4986    20.5294 </r>
       <r>   -15.0420     1.0450    20.6256 </r>
       <r>   -14.9499     4.8510    21.0722 </r>
       <r>   -14.8578     4.4084    21.4780 </r>
       <r>   -14.7658     1.3363    21.6010 </r>
       <r>   -14.6737     2.8565    21.8640 </r>
       <r>   -14.5817     8.4229    22.6394 </r>
       <r>   -14.4896     1.0344    22.7346 </r>
       <r>   -14.3975     0.1049    22.7443 </r>
       <r>   -14.3055     3.7407    23.0886 </r>
       <r>   -14.2134     4.2054    23.4758 </r>
       <r>   -14.1214     4.3621    23.8774 </r>
       <r>   -14.0293     0.9683    23.9665 </r>
       <r>   -13.9372     3.3538    24.2753 </r>
       <r>   -13.8452     1.8805    24.4484 </r>
       <r>   -13.7531     1.2873    24.5669 </r>
       <r>   -13.6611     3.9643    24.9318 </r>
       <r>   -13.5690     2.3220    25.1456 </r>
       <r>   -13.4769     4.3037    25.5418 </r>
       <r>   -13.3849     1.4447    25.6748 </r>
       <r>   -13.2928     2.4598    25.9012 </r>
       <r>   -13.2008     3.6484    26.2371 </r>
       <r>   -13.1087     0.0851    26.2450 </r>
       <r>   -13.0166     0.8763    26.3256 </r>
       <r>   -12.9246     9.2579    27.1779 </r>
       <r>   -12.8325     5.1510    27.6521 </r>
       <r>   -12.7405     3.2646    27.9526 </r>
       <r>   -12.6484     0.3863    27.9882 </r>
       <r>   -12.5563     2.1033    28.1818 </r>
       <r>   -12.4643     0.2857    28.2081 </r>
       <r>   -12.3722     1.5737    28.3530 </r>
       <r>   -12.2802     7.9203    29.0821 </r>
       <r>   -12.1881     8.6715    29.8804 </r>
       <r>   -12.0960     3.0291    30.1593 </r>
       <r>   -12.0040     0.0546    30.1643 </r>
       <r>   -11.9119     1.9297    30.3420 </r>
       <r>   -11.8199     3.3503    30.6504 </r>
       <r>   -11.7278     3.7041    30.9914 </r>
       <r>   -11.6357     6.3984    31.5804 </r>
       <r>   -11.5437     0.5669    31.6326 </r>
       <r>   -11.4516     0.2588    31.6564 </r>
       <r>   -11.3596     6.4268    32.2481 </r>
       <r>   -11.2675     6.0755    32.8074 </r>
       <r>   -11.1754     3.3834    33.1189 </r>
       <r>   -11.0834     5.5075    33.6259 </r>
       <r>   -10.9913     4.7496    34.0631 </r>
       <r>   -10.8993     2.8136    34.3222 </r>
       <r>   -10.8072     0.0475    34.3265 </r>
       <r>   -10.7152     0.0055    34.3270 </r>
       <r>   -10.6231     1.6182    34.4760 </r>
       <r>   -10.5310    10.8905    35.4786 </r>
       <r>   -10.4390    10.5318    36.4481 </r>
       <r>   -10.3469     2.9874    36.7232 </r>
       <r>   -10.2549     5.8968    37.2660 </r>
       <r>   -10.1628     2.0713    37.4567 </r>
       <r>   -10.0707     4.3407    37.8563 </r>
       <r>    -9.9787     4.9308    38.3102 </r>
       <r>    -9.8866    10.7664    39.3014 </r>
       <r>    -9.7946     9.9824    40.2203 </r>
       <r>    -9.7025     6.3319    40.8033 </r>
       <r>    -9.6104     8.6265    41.5974 </r>
       <r>    -9.5184     8.9876    42.4248 </r>
       <r>    -9.4263     5.4665    42.9281 </r>
       <r>    -9.3343     3.8433    43.2819 </r>
       <r>    -9.2422    10.3327    44.2331 </r>
       <r>    -9.1501    11.9773    45.3357 </r>
       <r>    -9.0581    14.7481    46.6934 </r>
       <r>    -8.9660     6.9357    47.3319 </r>
       <r>    -8.8740     3.3011    47.6358 </r>
       <r>    -8.7819    12.0055    48.7410 </r>
       <r>    -8.6898     7.0389    49.3890 </r>
       <r>    -8.5978     7.4470    50.0746 </r>
       <r>    -8.5057     6.9585    50.7152 </r>
       <r>    -8.4137     8.1426    51.4648 </r>
       <r>    -8.3216     3.4017    51.7780 </r>
       <r>    -8.2295     3.9167    52.1385 </r>
       <r>    -8.1375     5.7918    52.6717 </r>
       <r>    -8.0454    13.3821    53.9037 </r>
       <r>    -7.9534     5.5147    54.4113 </r>
       <r>    -7.8613     4.8915    54.8617 </r>
       <r>    -7.7692     1.2962    54.9810 </r>
       <r>    -7.6772     8.2791    55.7432 </r>
       <r>    -7.5851     7.0914    56.3960 </r>
       <r>    -7.4931     5.0706    56.8628 </r>
       <r>    -7.4010     3.0341    57.1421 </r>
       <r>    -7.3089     7.3144    57.8155 </r>
       <r>    -7.2169     2.4286    58.0390 </r>
       <r>    -7.1248     9.9338    58.9535 </r>
       <r>    -7.0328     7.4520    59.6396 </r>
       <r>    -6.9407     3.7667    59.9863 </r>
       <r>    -6.8486     3.5936    60.3171 </r>
       <r>    -6.7566     0.1633    60.3322 </r>
       <r>    -6.6645     4.3300    60.7308 </r>
       <r>    -6.5725    10.5045    61.6978 </r>
       <r>    -6.4804     8.8007    62.5080 </r>
       <r>    -6.3883     4.1183    62.8872 </r>
       <r>    -6.2963     4.1129    63.2658 </r>
       <r>    -6.2042     1.6759    63.4201 </r>
       <r>    -6.1122     4.9669    63.8773 </r>
       <r>    -6.0201     5.0067    64.3382 </r>
       <r>    -5.9281     2.7408    64.5906 </r>
       <r>    -5.8360     7.8616    65.3143 </r>
       <r>    -5.7439     7.1402    65.9716 </r>
       <r>    -5.6519     3.5256    66.2962 </r>
       <r>    -5.5598     3.7673    66.6430 </r>
       <r>    -5.4678     1.5003    66.7811 </r>
       <r>    -5.3757     3.1625    67.0723 </r>
       <r>    -5.2836     2.1120    67.2667 </r>
       <r>    -5.1916     1.5158    67.4062 </r>
       <r>    -5.0995     3.2982    67.7099 </r>
       <r>    -5.0075    15.4943    69.1363 </r>
       <r>    -4.9154     6.2080    69.7078 </r>
       <r>    -4.8233     0.0708    69.7143 </r>
       <r>    -4.7313     0.1529    69.7284 </r>
       <r>    -4.6392     2.0189    69.9142 </r>
       <r>    -4.5472     0.4926    69.9596 </r>
       <r>    -4.4551     1.4376    70.0919 </r>
       <r>    -4.3630     3.9380    70.4545 </r>
       <r>    -4.2710     5.0357    70.9180 </r>
       <r>    -4.1789     2.8455    71.1800 </r>
       <r>    -4.0869     0.0401    71.1837 </r>
       <r>    -3.9948     0.0134    71.1849 </r>
       <r>    -3.9027     1.2159    71.2968 </r>
       <r>    -3.8107     1.4102    71.4267 </r>
       <r>    -3.7186     0.0208    71.4286 </r>
       <r>    -3.6266     0.0167    71.4301 </r>
       <r>    -3.5345     2.1934    71.6320 </r>
       <r>    -3.4424     3.0541    71.9132 </r>
       <r>    -3.3504     0.0562    71.9184 </r>
       <r>    -3.2583     0.0000    71.9184 </r>
       <r>    -3.1663     0.0000    71.9184 </r>
       <r>    -3.0742     0.0000    71.9184 </r>
       <r>    -2.9821     0.0000    71.9184 </r>
       <r>    -2.8901     0.0004    71.9184 </r>
       <r>    -2.7980     0.2427    71.9407 </r>
       <r>    -2.7060     1.3454    72.0646 </r>
       <r>    -2.6139     0.1848    72.0816 </r>
       <r>    -2.5218     0.0002    72.0816 </r>
       <r>    -2.4298     0.0000    72.0816 </r>
       <r>    -2.3377     0.0000    72.0816 </r>
       <r>    -2.2457     0.0000    72.0816 </r>
       <r>    -2.1536     0.0001    72.0816 </r>
       <r>    -2.0615     0.3314    72.1122 </r>
       <r>    -1.9695     4.0674    72.4866 </r>
       <r>    -1.8774     0.9199    72.5713 </r>
       <r>    -1.7854     0.0644    72.5772 </r>
       <r>    -1.6933     1.7309    72.7365 </r>
       <r>    -1.6013     0.8605    72.8158 </r>
       <r>    -1.5092     0.0060    72.8163 </r>
       <r>    -1.4171     0.0043    72.8167 </r>
       <r>    -1.3251     2.0679    73.0071 </r>
       <r>    -1.2330    11.1752    74.0359 </r>
       <r>    -1.1410     2.9383    74.3064 </r>
       <r>    -1.0489     3.5237    74.6308 </r>
       <r>    -0.9568     5.6867    75.1543 </r>
       <r>    -0.8648     1.9468    75.3335 </r>
       <r>    -0.7727     4.1116    75.7120 </r>
       <r>    -0.6807     3.4371    76.0284 </r>
       <r>    -0.5886     4.7602    76.4666 </r>
       <r>    -0.4965     3.0017    76.7430 </r>
       <r>    -0.4045     3.7150    77.0850 </r>
       <r>    -0.3124     3.4205    77.3999 </r>
       <r>    -0.2204     5.1054    77.8699 </r>
       <r>    -0.1283     0.9647    77.9587 </r>
       <r>    -0.0362     0.0060    77.9592 </r>
       <r>     0.0558     0.5683    78.0115 </r>
       <r>     0.1479     4.1636    78.3948 </r>
       <r>     0.2399     1.6140    78.5434 </r>
       <r>     0.3320     4.0620    78.9174 </r>
       <r>     0.4241     3.6304    79.2516 </r>
       <r>     0.5161     3.1362    79.5403 </r>
       <r>     0.6082     3.6420    79.8756 </r>
       <r>     0.7002     1.3411    79.9991 </r>
       <r>     0.7923     5.8245    80.5352 </r>
       <r>     0.8844     5.9133    81.0796 </r>
       <r>     0.9764     1.5011    81.2178 </r>
       <r>     1.0685     4.2742    81.6113 </r>
       <r>     1.1605     1.8392    81.7806 </r>
       <r>     1.2526     5.6323    82.2991 </r>
       <r>     1.3447     2.1231    82.4946 </r>
       <r>     1.4367     6.9761    83.1368 </r>
       <r>     1.5288    13.9018    84.4166 </r>
       <r>     1.6208     4.5839    84.8386 </r>
       <r>     1.7129     4.6625    85.2678 </r>
       <r>     1.8050     3.3495    85.5762 </r>
       <r>     1.8970     8.8056    86.3868 </r>
       <r>     1.9891     8.9439    87.2102 </r>
       <r>     2.0811     9.1219    88.0499 </r>
       <r>     2.1732     6.8555    88.6811 </r>
       <r>     2.2653     7.0091    89.3263 </r>
       <r>     2.3573     7.4124    90.0087 </r>
       <r>     2.4494     5.8042    90.5430 </r>
       <r>     2.5414     4.0953    90.9200 </r>
       <r>     2.6335     2.3590    91.1372 </r>
       <r>     2.7256     2.1340    91.3337 </r>
       <r>     2.8176     4.6011    91.7572 </r>
       <r>     2.9097     2.5072    91.9880 </r>
       <r>     3.0017     0.1299    92.0000 </r>
       <r>     3.0938     0.0000    92.0000 </r>
       <r>     3.1858     0.0000    92.0000 </r>
       <r>     3.2779     0.0000    92.0000 </r>
       <r>     3.3700     0.0000    92.0000 </r>
       <r>     3.4620     0.0000    92.0000 </r>
       <r>     3.5541     0.0000    92.0000 </r>
       <r>     3.6461     0.0000    92.0000 </r>
       <r>     3.7382     0.0000    92.0000 </r>
       <r>     3.8303     0.0000    92.0000 </r>
       <r>     3.9223     0.0000    92.0000 </r>
       <r>     4.0144     0.0000    92.0000 </r>
       <r>     4.1064     0.0000    92.0000 </r>
      </set>
     </set>
    </array>
   </total>
  </dos>
 </calculation>
 <structure name="finalpos" >
  <crystal>
   <varray name="basis" >
    <v>       7.40170591       0.00000000       0.00000000 </v>
    <v>      -3.70085295       6.41006527       0.00000000 </v>
    <v>       0.00000000       0.00000000      20.00000000 </v>
   </varray>
   <i name="volume">    948.90835877 </i>
   <varray name="rec_basis" >
    <v>       0.13510399       0.07800233       0.00000000 </v>
    <v>       0.00000000       0.15600465       0.00000000 </v>
    <v>       0.00000000       0.00000000       0.05000000 </v>
   </varray>
  </crystal>
  <varray name="positions" >
   <v>       0.00078002       0.00156005       0.50000000 </v>
   <v>       0.33411336       0.00156005       0.50000000 </v>
   <v>       0.66666667       0.00000000       0.50000000 </v>
   <v>       0.00000000       0.33333333       0.50000000 </v>
   <v>       0.33333333       0.33333333       0.50000000 </v>
   <v>       0.66666667       0.33333333       0.50000000 </v>
   <v>       0.00000000       0.66666667       0.50000000 </v>
   <v>       0.33333333       0.66666667       0.50000000 </v>
   <v>       0.66666667       0.66666667       0.50000000 </v>
   <v>       0.22222222       0.11111111       0.50000000 </v>
   <v>       0.55555556       0.11111111       0.50000000 </v>
   <v>       0.88888889       0.11111111       0.50000000 </v>
   <v>       0.22222222       0.44444444       0.50000000 </v>
   <v>       0.55555556       0.44444444       0.50000000 </v>
   <v>       0.88888889       0.44444444       0.50000000 </v>
   <v>       0.22222222       0.77777778       0.50000000 </v>
   <v>       0.55555556       0.77777778       0.50000000 </v>
   <v>       0.88888889       0.77777778       0.50000000 </v>
  </varray>
 </structure>
</modeling>
