<?xml version="1.0" encoding="ISO-8859-1"?>
<modeling>
 <generator>
  <i name="program" type="string">vasp </i>
  <i name="version" type="string">6.4.1  </i>
  <i name="subversion" type="string">05Apr23 (build Feb 12 2025 00:37:39) complex                          parallel </i>
  <i name="platform" type="string">LinuxIFC </i>
  <i name="date" type="string">2025 02 14 </i>
  <i name="time" type="string">05:21:20 </i>
 </generator>
 <incar>
  <i type="string" name="SYSTEM">SCF</i>
  <i type="int" name="ISTART">     0</i>
  <i type="int" name="ICHARG">     2</i>
  <i type="int" name="NELM">    60</i>
  <i type="int" name="NELMIN">     6</i>
  <i name="EDIFF">      0.00000100</i>
  <i name="EDIFFG">     -0.00000100</i>
  <i name="ENCUT">    600.00000000</i>
  <i type="string" name="LREAL">Auto</i>
  <i type="int" name="ISMEAR">     0</i>
  <i name="SIGMA">      0.05000000</i>
  <i type="logical" name="LWAVE"> F  </i>
  <i type="logical" name="LCHARG"> F  </i>
 </incar>
 <primitive_cell>
  <structure name="primitive_cell" >
   <crystal>
    <varray name="basis" >
     <v>       7.40170591       0.00000000       0.00000000 </v>
     <v>      -3.70085295       6.41006527       0.00000000 </v>
     <v>       0.00000000       0.00000000      20.00000000 </v>
    </varray>
    <i name="volume">    948.90835877 </i>
    <varray name="rec_basis" >
     <v>       0.13510399       0.07800233       0.00000000 </v>
     <v>       0.00000000       0.15600465       0.00000000 </v>
     <v>       0.00000000       0.00000000       0.05000000 </v>
    </varray>
   </crystal>
   <varray name="positions" >
    <v>       0.00135104       0.00000000       0.50000000 </v>
    <v>       0.33333333       0.00000000       0.50000000 </v>
    <v>       0.66666667       0.00000000       0.50000000 </v>
    <v>       1.00000000       0.33333333       0.50000000 </v>
    <v>       0.33333333       0.33333333       0.50000000 </v>
    <v>       0.66666667       0.33333333       0.50000000 </v>
    <v>       1.00000000       0.66666667       0.50000000 </v>
    <v>       0.33333333       0.66666667       0.50000000 </v>
    <v>       0.66666667       0.66666667       0.50000000 </v>
    <v>       0.22357326       0.11111111       0.50000000 </v>
    <v>       0.55555556       0.11111111       0.50000000 </v>
    <v>       0.88888889       0.11111111       0.50000000 </v>
    <v>       0.22222222       0.44444444       0.50000000 </v>
    <v>       0.55555556       0.44444444       0.50000000 </v>
    <v>       0.88888889       0.44444444       0.50000000 </v>
    <v>       0.22222222       0.77777778       0.50000000 </v>
    <v>       0.55555556       0.77777778       0.50000000 </v>
    <v>       0.88888889       0.77777778       0.50000000 </v>
   </varray>
  </structure>
  <varray name="primitive_index" >
   <v type="int" >        1 </v>
   <v type="int" >        2 </v>
   <v type="int" >        3 </v>
   <v type="int" >        4 </v>
   <v type="int" >        5 </v>
   <v type="int" >        6 </v>
   <v type="int" >        7 </v>
   <v type="int" >        8 </v>
   <v type="int" >        9 </v>
   <v type="int" >       10 </v>
   <v type="int" >       11 </v>
   <v type="int" >       12 </v>
   <v type="int" >       13 </v>
   <v type="int" >       14 </v>
   <v type="int" >       15 </v>
   <v type="int" >       16 </v>
   <v type="int" >       17 </v>
   <v type="int" >       18 </v>
  </varray>
 </primitive_cell>
 <kpoints>
  <generation param="Gamma">
   <v type="int" name="divisions">       7        7        1 </v>
   <v name="usershift">      0.00000000       0.00000000       0.00000000 </v>
   <v name="genvec1">      0.14285714       0.00000000       0.00000000 </v>
   <v name="genvec2">      0.00000000       0.14285714       0.00000000 </v>
   <v name="genvec3">      0.00000000       0.00000000       1.00000000 </v>
   <v name="shift">      0.00000000       0.00000000       0.00000000 </v>
  </generation>
  <varray name="kpointlist" >
   <v>       0.00000000       0.00000000       0.00000000 </v>
   <v>       0.14285714       0.00000000       0.00000000 </v>
   <v>       0.00000000       0.14285714       0.00000000 </v>
   <v>      -0.14285714       0.14285714       0.00000000 </v>
   <v>       0.28571429       0.00000000       0.00000000 </v>
   <v>       0.00000000       0.28571429       0.00000000 </v>
   <v>      -0.28571429       0.28571429       0.00000000 </v>
   <v>       0.42857143       0.00000000       0.00000000 </v>
   <v>       0.00000000       0.42857143       0.00000000 </v>
   <v>      -0.42857143       0.42857143       0.00000000 </v>
   <v>       0.14285714       0.14285714       0.00000000 </v>
   <v>      -0.14285714       0.28571429       0.00000000 </v>
   <v>      -0.28571429       0.14285714       0.00000000 </v>
   <v>       0.28571429       0.14285714       0.00000000 </v>
   <v>      -0.14285714       0.42857143       0.00000000 </v>
   <v>      -0.42857143       0.28571429       0.00000000 </v>
   <v>      -0.28571429       0.42857143       0.00000000 </v>
   <v>       0.14285714       0.28571429       0.00000000 </v>
   <v>       0.42857143      -0.14285714       0.00000000 </v>
   <v>       0.42857143       0.14285714       0.00000000 </v>
   <v>      -0.14285714      -0.42857143       0.00000000 </v>
   <v>       0.42857143       0.42857143       0.00000000 </v>
   <v>       0.28571429       0.28571429       0.00000000 </v>
   <v>      -0.28571429      -0.42857143       0.00000000 </v>
   <v>       0.42857143       0.28571429       0.00000000 </v>
  </varray>
  <varray name="weights" >
   <v>       0.02040816 </v>
   <v>       0.04081633 </v>
   <v>       0.04081633 </v>
   <v>       0.04081633 </v>
   <v>       0.04081633 </v>
   <v>       0.04081633 </v>
   <v>       0.04081633 </v>
   <v>       0.04081633 </v>
   <v>       0.04081633 </v>
   <v>       0.04081633 </v>
   <v>       0.04081633 </v>
   <v>       0.04081633 </v>
   <v>       0.04081633 </v>
   <v>       0.04081633 </v>
   <v>       0.04081633 </v>
   <v>       0.04081633 </v>
   <v>       0.04081633 </v>
   <v>       0.04081633 </v>
   <v>       0.04081633 </v>
   <v>       0.04081633 </v>
   <v>       0.04081633 </v>
   <v>       0.04081633 </v>
   <v>       0.04081633 </v>
   <v>       0.04081633 </v>
   <v>       0.04081633 </v>
  </varray>
 </kpoints>
 <parameters>
  <separator name="general" >
   <i type="string" name="SYSTEM">SCF</i>
   <i type="logical" name="LCOMPAT"> F  </i>
  </separator>
  <separator name="electronic" >
   <i type="string" name="PREC">normal</i>
   <i name="ENMAX">    600.00000000</i>
   <i name="ENAUG">    644.87300000</i>
   <i name="EDIFF">      0.00000100</i>
   <i type="int" name="IALGO">    38</i>
   <i type="int" name="IWAVPR">    10</i>
   <i type="int" name="NBANDS">    46</i>
   <i type="int" name="NBANDSLOW">    -1</i>
   <i type="int" name="NBANDSHIGH">    -1</i>
   <i name="NELECT">     72.00000000</i>
   <i type="int" name="TURBO">     0</i>
   <i type="int" name="IRESTART">     0</i>
   <i type="int" name="NREBOOT">     0</i>
   <i type="int" name="NMIN">     0</i>
   <i name="EREF">      0.00000000</i>
   <separator name="electronic smearing" >
    <i type="int" name="ISMEAR">     0</i>
    <i name="SIGMA">      0.05000000</i>
    <i name="KSPACING">      0.50000000</i>
    <i type="logical" name="KGAMMA"> T  </i>
    <i type="logical" name="KBLOWUP"> T  </i>
   </separator>
   <separator name="electronic projectors" >
    <i type="logical" name="LREAL"> T  </i>
    <v name="ROPT">     -0.00050000</v>
    <i type="int" name="LMAXPAW">  -100</i>
    <i type="int" name="LMAXMIX">     2</i>
    <i type="logical" name="NLSPLINE"> F  </i>
   </separator>
   <separator name="electronic startup" >
    <i type="int" name="ISTART">     0</i>
    <i type="int" name="ICHARG">     2</i>
    <i type="int" name="INIWAV">     1</i>
   </separator>
   <separator name="electronic spin" >
    <i type="int" name="ISPIN">     1</i>
    <i type="logical" name="LNONCOLLINEAR"> F  </i>
    <v name="MAGMOM">      1.00000000      1.00000000      1.00000000      1.00000000      1.00000000      1.00000000      1.00000000      1.00000000      1.00000000      1.00000000      1.00000000      1.00000000      1.00000000      1.00000000      1.00000000      1.00000000      1.00000000      1.00000000</v>
    <i name="NUPDOWN">     -1.00000000</i>
    <i type="logical" name="LSORBIT"> F  </i>
    <v name="SAXIS">      0.00000000      0.00000000      1.00000000</v>
    <i type="logical" name="LSPIRAL"> F  </i>
    <v name="QSPIRAL">      0.00000000      0.00000000      0.00000000</v>
    <i type="logical" name="LZEROZ"> F  </i>
   </separator>
   <separator name="electronic exchange-correlation" >
    <i type="logical" name="LASPH"> F  </i>
    <i type="logical" name="LMETAGGA"> F  </i>
   </separator>
   <separator name="electronic convergence" >
    <i type="int" name="NELM">    60</i>
    <i type="int" name="NELMDL">    -5</i>
    <i type="int" name="NELMIN">     6</i>
    <i name="ENINI">    600.00000000</i>
    <separator name="electronic convergence detail" >
     <i type="logical" name="LDIAG"> T  </i>
     <i type="logical" name="LSUBROT"> F  </i>
     <i name="WEIMIN">      0.00000000</i>
     <i name="EBREAK">      0.00000000</i>
     <i name="DEPER">      0.30000000</i>
     <i type="int" name="NRMM">     4</i>
     <i name="TIME">      0.40000000</i>
    </separator>
   </separator>
   <separator name="electronic mixer" >
    <i name="AMIX">      0.40000000</i>
    <i name="BMIX">      1.00000000</i>
    <i name="AMIN">      0.10000000</i>
    <i name="AMIX_MAG">      1.60000000</i>
    <i name="BMIX_MAG">      1.00000000</i>
    <separator name="electronic mixer details" >
     <i type="int" name="IMIX">     4</i>
     <i type="logical" name="MIXFIRST"> F  </i>
     <i type="int" name="MAXMIX">   -45</i>
     <i name="WC">    100.00000000</i>
     <i type="int" name="INIMIX">     1</i>
     <i type="int" name="MIXPRE">     1</i>
     <i type="int" name="MREMOVE">     5</i>
    </separator>
   </separator>
   <separator name="electronic dipolcorrection" >
    <i type="logical" name="LDIPOL"> F  </i>
    <i type="logical" name="LMONO"> F  </i>
    <i type="int" name="IDIPOL">     0</i>
    <i name="EPSILON">      1.00000000</i>
    <v name="DIPOL">   -100.00000000   -100.00000000   -100.00000000</v>
    <i name="EFIELD">      0.00000000</i>
   </separator>
  </separator>
  <separator name="grids" >
   <i type="int" name="NGX">    48</i>
   <i type="int" name="NGY">    48</i>
   <i type="int" name="NGZ">   120</i>
   <i type="int" name="NGXF">    96</i>
   <i type="int" name="NGYF">    96</i>
   <i type="int" name="NGZF">   240</i>
   <i type="logical" name="ADDGRID"> F  </i>
  </separator>
  <separator name="ionic" >
   <i type="int" name="NSW">     0</i>
   <i type="int" name="IBRION">    -1</i>
   <i type="int" name="MDALGO">     0</i>
   <i type="int" name="ISIF">     2</i>
   <i name="PSTRESS">      0.00000000</i>
   <i name="EDIFFG">     -0.00000100</i>
   <i type="int" name="NFREE">     0</i>
   <i name="POTIM">      0.50000000</i>
   <i name="SMASS">     -3.00000000</i>
   <i name="SCALEE">      1.00000000</i>
  </separator>
  <separator name="ionic md" >
   <i name="TEBEG">      0.00010000</i>
   <i name="TEEND">      0.00010000</i>
   <i type="int" name="NBLOCK">     1</i>
   <i type="int" name="KBLOCK">     1</i>
   <i type="int" name="NPACO">   256</i>
   <i name="APACO">     10.00000000</i>
  </separator>
  <separator name="symmetry" >
   <i type="int" name="ISYM">     2</i>
   <i name="SYMPREC">      0.00001000</i>
  </separator>
  <separator name="dos" >
   <i type="int" name="LORBIT">     0</i>
   <v name="RWIGS">     -1.00000000</v>
   <i type="int" name="NEDOS">   301</i>
   <i name="EMIN">     10.00000000</i>
   <i name="EMAX">    -10.00000000</i>
   <i name="EFERMI">      0.00000000</i>
  </separator>
  <separator name="writing" >
   <i type="int" name="NWRITE">     2</i>
   <i type="logical" name="LWAVE"> F  </i>
   <i type="logical" name="LDOWNSAMPLE"> F  </i>
   <i type="logical" name="LCHARG"> F  </i>
   <i type="logical" name="LPARD"> F  </i>
   <i type="logical" name="LVTOT"> F  </i>
   <i type="logical" name="LVHAR"> F  </i>
   <i type="logical" name="LELF"> F  </i>
   <i type="logical" name="LOPTICS"> F  </i>
   <v name="STM">      0.00000000      0.00000000      0.00000000      0.00000000      0.00000000      0.00000000      0.00000000</v>
  </separator>
  <separator name="performance" >
   <i type="int" name="NPAR">     2</i>
   <i type="int" name="NSIM">     4</i>
   <i type="int" name="NBLK">    -1</i>
   <i type="logical" name="LPLANE"> T  </i>
   <i type="logical" name="LSCALAPACK"> T  </i>
   <i type="logical" name="LSCAAWARE"> F  </i>
   <i type="logical" name="LSCALU"> F  </i>
   <i type="logical" name="LASYNC"> F  </i>
   <i type="logical" name="LORBITALREAL"> F  </i>
  </separator>
  <separator name="miscellaneous" >
   <i type="int" name="IDIOT">     3</i>
   <i type="int" name="PHON_NSTRUCT">    -1</i>
   <i type="logical" name="LMUSIC"> F  </i>
   <v name="POMASS">     12.01100000</v>
   <v name="DARWINR">      0.00000000</v>
   <v name="DARWINV">      1.00000000</v>
   <i type="logical" name="LCORR"> T  </i>
  </separator>
  <i type="logical" name="GGA_COMPAT"> T  </i>
  <i type="logical" name="LBERRY"> F  </i>
  <i type="int" name="ICORELEVEL">     0</i>
  <i type="logical" name="LDAU"> F  </i>
  <i type="int" name="I_CONSTRAINED_M">     0</i>
  <separator name="electronic exchange-correlation" >
   <i type="string" name="GGA">--</i>
   <i type="int" name="VOSKOWN">     0</i>
   <i type="logical" name="LHFCALC"> F  </i>
   <i type="string" name="PRECFOCK"></i>
   <i type="logical" name="LSYMGRAD"> F  </i>
   <i type="logical" name="LHFONE"> F  </i>
   <i type="logical" name="LRHFCALC"> F  </i>
   <i type="logical" name="LTHOMAS"> F  </i>
   <i type="logical" name="LMODELHF"> F  </i>
   <i type="logical" name="LFOCKACE"> F  </i>
   <i name="ENCUT4O">     -1.00000000</i>
   <i type="int" name="EXXOEP">     0</i>
   <i type="int" name="FOURORBIT">     0</i>
   <i name="AEXX">      0.00000000</i>
   <i name="HFALPHA">      0.00000000</i>
   <i name="MCALPHA">      0.00000000</i>
   <i name="ALDAX">      1.00000000</i>
   <i name="AGGAX">      1.00000000</i>
   <i name="ALDAC">      1.00000000</i>
   <i name="AGGAC">      1.00000000</i>
   <i type="int" name="NKREDX">     1</i>
   <i type="int" name="NKREDY">     1</i>
   <i type="int" name="NKREDZ">     1</i>
   <i type="logical" name="SHIFTRED"> F  </i>
   <i type="logical" name="ODDONLY"> F  </i>
   <i type="logical" name="EVENONLY"> F  </i>
   <i type="int" name="LMAXFOCK">     0</i>
   <i type="int" name="NMAXFOCKAE">     0</i>
   <i type="logical" name="LFOCKAEDFT"> F  </i>
   <i name="HFSCREEN">      0.00000000</i>
   <i name="HFSCREENC">      0.00000000</i>
   <i type="int" name="NBANDSGWLOW">     0</i>
  </separator>
  <separator name="vdW DFT" >
   <i type="logical" name="LUSE_VDW"> F  </i>
   <i type="int" name="IVDW_NL">     1</i>
   <i type="logical" name="LSPIN_VDW"> F  </i>
   <i name="Zab_VDW">     -0.84910000</i>
   <i name="PARAM1">      0.12340000</i>
   <i name="PARAM2">      1.00000000</i>
   <i name="PARAM3">      0.00000000</i>
  </separator>
  <separator name="model GW" >
   <i type="int" name="MODEL_GW">     0</i>
   <i name="MODEL_EPS0">     31.63027863</i>
   <i name="MODEL_ALPHA">      1.00000000</i>
  </separator>
  <separator name="linear response parameters" >
   <i type="logical" name="LEPSILON"> F  </i>
   <i type="logical" name="LRPA"> F  </i>
   <i type="logical" name="LNABLA"> F  </i>
   <i type="logical" name="LVEL"> F  </i>
   <i name="CSHIFT">      0.10000000</i>
   <i name="OMEGAMAX">     -1.00000000</i>
   <i name="DEG_THRESHOLD">      0.00200000</i>
   <i name="RTIME">     -0.10000000</i>
   <i name="WPLASMAI">      0.00000000</i>
   <v name="DFIELD">      0.00000000      0.00000000      0.00000000</v>
   <v name="WPLASMA">      0.00000000      0.00000000      0.00000000      0.00000000      0.00000000      0.00000000      0.00000000      0.00000000      0.00000000</v>
  </separator>
  <separator name="orbital magnetization" >
   <i type="logical" name="NUCIND"> F  </i>
   <v name="MAGPOS">      0.00000000      0.00000000      0.00000000</v>
   <i type="logical" name="LNICSALL"> T  </i>
   <i type="logical" name="ORBITALMAG"> F  </i>
   <i type="logical" name="LMAGBLOCH"> F  </i>
   <i type="logical" name="LCHIMAG"> F  </i>
   <i type="logical" name="LGAUGE"> T  </i>
   <i type="int" name="MAGATOM">     0</i>
   <v name="MAGDIPOL">      0.00000000      0.00000000      0.00000000</v>
   <v name="AVECCONST">      0.00000000      0.00000000      0.00000000</v>
  </separator>
  <separator name="response functions" >
   <i type="logical" name="LALL_IN_ONE"> F  </i>
   <i type="int" name="IALL_IN_ONE">    -1</i>
   <i type="int" name="NBANDS_WAVE">    -1</i>
   <i type="logical" name="LFINITE_TEMPERATURE"> F  </i>
   <i type="logical" name="LADDER"> F  </i>
   <i type="logical" name="LRPAFORCE"> F  </i>
   <i type="logical" name="LFXC"> F  </i>
   <i type="logical" name="LHARTREE"> T  </i>
   <i type="int" name="IBSE">     0</i>
   <v type="int" name="KPOINT">    -1     0     0     0</v>
   <i type="logical" name="LTCTC"> F  </i>
   <i type="logical" name="LTCTE"> F  </i>
   <i type="logical" name="LTETE"> F  </i>
   <i type="logical" name="LTRIPLET"> F  </i>
   <i type="logical" name="LFXCEPS"> F  </i>
   <i type="logical" name="LFXHEG"> F  </i>
   <i type="int" name="NATURALO">     2</i>
   <i type="logical" name="LHOLEGF"> F  </i>
   <i type="logical" name="L2ORDER"> F  </i>
   <i type="logical" name="LDMP1"> F  </i>
   <i type="logical" name="LMP2LT"> F  </i>
   <i type="logical" name="LSMP2LT"> F  </i>
   <i type="logical" name="LGWLF"> F  </i>
   <i name="ENCUTGW">     -1.60000002</i>
   <i name="ENCUTGWSOFT">     -1.60000002</i>
   <i name="ENCUTLF">     -1.00000000</i>
   <i type="logical" name="LESF_SPLINES"> F  </i>
   <i type="int" name="LMAXMP2">    -1</i>
   <i name="SCISSOR">      0.00000000</i>
   <i type="int" name="NOMEGA">     0</i>
   <i type="int" name="NOMEGAR">     0</i>
   <i type="int" name="NBANDSGW">    -1</i>
   <i type="int" name="NBANDSO">    -1</i>
   <i type="int" name="NBANDSV">    -1</i>
   <i type="int" name="NELMGW">     1</i>
   <i type="int" name="NELMHF">     1</i>
   <i type="int" name="DIM">     3</i>
   <i type="int" name="IESPILON">     4</i>
   <i type="int" name="ANTIRES">     0</i>
   <i name="OMEGAMAX">    -30.00000000</i>
   <i name="OMEGAMIN">    -30.00000000</i>
   <i name="OMEGATL">   -200.00000000</i>
   <i type="int" name="OMEGAGRID">     0</i>
   <i name="CSHIFT">     -0.10000000</i>
   <i type="logical" name="LSELFENERGY"> F  </i>
   <i type="logical" name="LSPECTRAL"> F  </i>
   <i type="logical" name="LSPECTRALGW"> F  </i>
   <i type="logical" name="LSINGLES"> F  </i>
   <i type="logical" name="LFERMIGW"> F  </i>
   <i type="logical" name="ODDONLYGW"> F  </i>
   <i type="logical" name="EVENONLYGW"> F  </i>
   <i type="int" name="NKREDLFX">     1</i>
   <i type="int" name="NKREDLFY">     1</i>
   <i type="int" name="NKREDLFZ">     1</i>
   <i type="int" name="MAXMEM">  2800</i>
   <i type="int" name="TELESCOPE">     0</i>
   <i type="int" name="NTAUPAR">    -1</i>
   <i type="int" name="NOMEGAPAR">    -1</i>
   <i name="DAMP_NEWTON">      0.80000001</i>
   <i name="LAMBDA">      1.00000000</i>
  </separator>
  <separator name="External order field" >
   <i name="OFIELD_KAPPA">      0.00000000</i>
   <v name="OFIELD_K">      0.00000000      0.00000000      0.00000000</v>
   <i name="OFIELD_Q6_NEAR">      0.00000000</i>
   <i name="OFIELD_Q6_FAR">      0.00000000</i>
   <i name="OFIELD_A">      0.00000000</i>
  </separator>
  <separator name="optional k-points parameters" >
   <i type="int" name="KPOINTS_OPT_MODE">     1</i>
   <i type="logical" name="LKPOINTS_OPT"> F  </i>
  </separator>
 </parameters>
 <atominfo>
  <atoms>      18 </atoms>
  <types>       1 </types>
  <array name="atoms" >
   <dimension dim="1">ion</dimension>
   <field type="string">element</field>
   <field type="int">atomtype</field>
   <set>
    <rc><c>C </c><c>   1</c></rc>
    <rc><c>C </c><c>   1</c></rc>
    <rc><c>C </c><c>   1</c></rc>
    <rc><c>C </c><c>   1</c></rc>
    <rc><c>C </c><c>   1</c></rc>
    <rc><c>C </c><c>   1</c></rc>
    <rc><c>C </c><c>   1</c></rc>
    <rc><c>C </c><c>   1</c></rc>
    <rc><c>C </c><c>   1</c></rc>
    <rc><c>C </c><c>   1</c></rc>
    <rc><c>C </c><c>   1</c></rc>
    <rc><c>C </c><c>   1</c></rc>
    <rc><c>C </c><c>   1</c></rc>
    <rc><c>C </c><c>   1</c></rc>
    <rc><c>C </c><c>   1</c></rc>
    <rc><c>C </c><c>   1</c></rc>
    <rc><c>C </c><c>   1</c></rc>
    <rc><c>C </c><c>   1</c></rc>
   </set>
  </array>
  <array name="atomtypes" >
   <dimension dim="1">type</dimension>
   <field type="int">atomspertype</field>
   <field type="string">element</field>
   <field>mass</field>
   <field>valence</field>
   <field type="string">pseudopotential</field>
   <set>
    <rc><c>  18</c><c>C </c><c>     12.01100000</c><c>      4.00000000</c><c>  PAW_PBE C 08Apr2002                   </c></rc>
   </set>
  </array>
 </atominfo>
 <structure name="initialpos" >
  <crystal>
   <varray name="basis" >
    <v>       7.40170591       0.00000000       0.00000000 </v>
    <v>      -3.70085295       6.41006527       0.00000000 </v>
    <v>       0.00000000       0.00000000      20.00000000 </v>
   </varray>
   <i name="volume">    948.90835877 </i>
   <varray name="rec_basis" >
    <v>       0.13510399       0.07800233       0.00000000 </v>
    <v>       0.00000000       0.15600465       0.00000000 </v>
    <v>       0.00000000       0.00000000       0.05000000 </v>
   </varray>
  </crystal>
  <varray name="positions" >
   <v>       0.00135104       0.00000000       0.50000000 </v>
   <v>       0.33333333       0.00000000       0.50000000 </v>
   <v>       0.66666667       0.00000000       0.50000000 </v>
   <v>       0.00000000       0.33333333       0.50000000 </v>
   <v>       0.33333333       0.33333333       0.50000000 </v>
   <v>       0.66666667       0.33333333       0.50000000 </v>
   <v>       0.00000000       0.66666667       0.50000000 </v>
   <v>       0.33333333       0.66666667       0.50000000 </v>
   <v>       0.66666667       0.66666667       0.50000000 </v>
   <v>       0.22357326       0.11111111       0.50000000 </v>
   <v>       0.55555556       0.11111111       0.50000000 </v>
   <v>       0.88888889       0.11111111       0.50000000 </v>
   <v>       0.22222222       0.44444444       0.50000000 </v>
   <v>       0.55555556       0.44444444       0.50000000 </v>
   <v>       0.88888889       0.44444444       0.50000000 </v>
   <v>       0.22222222       0.77777778       0.50000000 </v>
   <v>       0.55555556       0.77777778       0.50000000 </v>
   <v>       0.88888889       0.77777778       0.50000000 </v>
  </varray>
 </structure>
 <calculation>
  <scstep>
   <time name="dav">    5.86    6.09</time>
   <time name="total">    5.95    6.18</time>
   <energy>
    <i name="alphaZ">     28.04858418 </i>
    <i name="ewald">  11638.86656831 </i>
    <i name="hartreedc"> -13553.18043595 </i>
    <i name="XCdc">    237.17757256 </i>
    <i name="pawpsdc">   1953.39683484 </i>
    <i name="pawaedc">  -1963.64613940 </i>
    <i name="eentropy">     -0.00822798 </i>
    <i name="bandstr">   -257.75474303 </i>
    <i name="atom">   2648.70517965 </i>
    <i name="e_fr_energy">    731.60519318 </i>
    <i name="e_wo_entrp">    731.61342116 </i>
    <i name="e_0_energy">    731.60930717 </i>
   </energy>
  </scstep>
  <scstep>
   <time name="dav">    7.86    8.16</time>
   <time name="total">    7.86    8.16</time>
   <energy>
    <i name="e_fr_energy">    -23.91931224 </i>
    <i name="e_wo_entrp">    -23.91905531 </i>
    <i name="e_0_energy">    -23.91918377 </i>
   </energy>
  </scstep>
  <scstep>
   <time name="dav">    6.38    5.43</time>
   <time name="total">    6.38    5.43</time>
   <energy>
    <i name="e_fr_energy">   -172.28185872 </i>
    <i name="e_wo_entrp">   -172.28041403 </i>
    <i name="e_0_energy">   -172.28113637 </i>
   </energy>
  </scstep>
  <scstep>
   <time name="dav">    6.27    6.50</time>
   <time name="total">    6.27    6.50</time>
   <energy>
    <i name="e_fr_energy">   -177.34764213 </i>
    <i name="e_wo_entrp">   -177.34542421 </i>
    <i name="e_0_energy">   -177.34653317 </i>
   </energy>
  </scstep>
  <scstep>
   <time name="dav">    7.26    7.54</time>
   <time name="total">    7.52    7.81</time>
   <energy>
    <i name="e_fr_energy">   -177.48539575 </i>
    <i name="e_wo_entrp">   -177.48320145 </i>
    <i name="e_0_energy">   -177.48429860 </i>
   </energy>
  </scstep>
  <scstep>
   <time name="dav">    5.87    6.09</time>
   <time name="total">    6.21    6.45</time>
   <energy>
    <i name="e_fr_energy">   -169.31827796 </i>
    <i name="e_wo_entrp">   -169.31603513 </i>
    <i name="e_0_energy">   -169.31715655 </i>
   </energy>
  </scstep>
  <scstep>
   <time name="dav">    5.90    6.13</time>
   <time name="total">    6.25    6.49</time>
   <energy>
    <i name="e_fr_energy">   -166.15020190 </i>
    <i name="e_wo_entrp">   -166.14795068 </i>
    <i name="e_0_energy">   -166.14907629 </i>
   </energy>
  </scstep>
  <scstep>
   <time name="dav">    6.10    5.15</time>
   <time name="total">    6.45    5.51</time>
   <energy>
    <i name="e_fr_energy">   -166.08745932 </i>
    <i name="e_wo_entrp">   -166.08521476 </i>
    <i name="e_0_energy">   -166.08633704 </i>
   </energy>
  </scstep>
  <scstep>
   <time name="dav">    6.49    6.74</time>
   <time name="total">    6.84    7.10</time>
   <energy>
    <i name="e_fr_energy">   -166.07461438 </i>
    <i name="e_wo_entrp">   -166.07236727 </i>
    <i name="e_0_energy">   -166.07349083 </i>
   </energy>
  </scstep>
  <scstep>
   <time name="dav">    5.74    5.96</time>
   <time name="total">    6.08    6.32</time>
   <energy>
    <i name="e_fr_energy">   -166.05614244 </i>
    <i name="e_wo_entrp">   -166.05389343 </i>
    <i name="e_0_energy">   -166.05501793 </i>
   </energy>
  </scstep>
  <scstep>
   <time name="dav">    5.73    5.95</time>
   <time name="total">    6.08    6.31</time>
   <energy>
    <i name="e_fr_energy">   -166.05920532 </i>
    <i name="e_wo_entrp">   -166.05695804 </i>
    <i name="e_0_energy">   -166.05808168 </i>
   </energy>
  </scstep>
  <scstep>
   <time name="dav">    5.89    6.12</time>
   <time name="total">    6.24    6.48</time>
   <energy>
    <i name="e_fr_energy">   -166.06414201 </i>
    <i name="e_wo_entrp">   -166.06189502 </i>
    <i name="e_0_energy">   -166.06301851 </i>
   </energy>
  </scstep>
  <scstep>
   <time name="dav">    5.64    4.65</time>
   <time name="total">    5.99    5.01</time>
   <energy>
    <i name="e_fr_energy">   -166.06807182 </i>
    <i name="e_wo_entrp">   -166.06582430 </i>
    <i name="e_0_energy">   -166.06694806 </i>
   </energy>
  </scstep>
  <scstep>
   <time name="dav">    5.58    5.78</time>
   <time name="total">    5.93    6.15</time>
   <energy>
    <i name="e_fr_energy">   -166.07211257 </i>
    <i name="e_wo_entrp">   -166.06986487 </i>
    <i name="e_0_energy">   -166.07098872 </i>
   </energy>
  </scstep>
  <scstep>
   <time name="dav">    5.87    6.11</time>
   <time name="total">    6.22    6.48</time>
   <energy>
    <i name="e_fr_energy">   -166.07349427 </i>
    <i name="e_wo_entrp">   -166.07124661 </i>
    <i name="e_0_energy">   -166.07237044 </i>
   </energy>
  </scstep>
  <scstep>
   <time name="dav">    6.02    6.27</time>
   <time name="total">    6.37    6.63</time>
   <energy>
    <i name="e_fr_energy">   -166.07362773 </i>
    <i name="e_wo_entrp">   -166.07138010 </i>
    <i name="e_0_energy">   -166.07250392 </i>
   </energy>
  </scstep>
  <scstep>
   <time name="dav">    5.72    5.94</time>
   <time name="total">    6.06    6.30</time>
   <energy>
    <i name="e_fr_energy">   -166.07384634 </i>
    <i name="e_wo_entrp">   -166.07159883 </i>
    <i name="e_0_energy">   -166.07272259 </i>
   </energy>
  </scstep>
  <scstep>
   <time name="dav">    5.03    4.00</time>
   <time name="total">    5.38    4.36</time>
   <energy>
    <i name="e_fr_energy">   -166.07390084 </i>
    <i name="e_wo_entrp">   -166.07165327 </i>
    <i name="e_0_energy">   -166.07277705 </i>
   </energy>
  </scstep>
  <scstep>
   <time name="dav">    4.99    5.18</time>
   <time name="total">    5.34    5.54</time>
   <energy>
    <i name="e_fr_energy">   -166.07393778 </i>
    <i name="e_wo_entrp">   -166.07169015 </i>
    <i name="e_0_energy">   -166.07281396 </i>
   </energy>
  </scstep>
  <scstep>
   <time name="dav">    4.83    5.01</time>
   <time name="total">    5.18    5.37</time>
   <energy>
    <i name="e_fr_energy">   -166.07396390 </i>
    <i name="e_wo_entrp">   -166.07171633 </i>
    <i name="e_0_energy">   -166.07284011 </i>
   </energy>
  </scstep>
  <scstep>
   <time name="dav">    3.96    4.11</time>
   <time name="total">    4.31    4.47</time>
   <energy>
    <i name="e_fr_energy">   -166.07397291 </i>
    <i name="e_wo_entrp">   -166.07172532 </i>
    <i name="e_0_energy">   -166.07284911 </i>
   </energy>
  </scstep>
  <scstep>
   <time name="dav">    3.84    3.99</time>
   <time name="total">    4.19    4.36</time>
   <energy>
    <i name="e_fr_energy">   -166.07397622 </i>
    <i name="e_wo_entrp">   -166.07172864 </i>
    <i name="e_0_energy">   -166.07285243 </i>
   </energy>
  </scstep>
  <scstep>
   <time name="dav">    3.89    4.04</time>
   <time name="total">    3.98    4.13</time>
   <energy>
    <i name="alphaZ">     28.04858418 </i>
    <i name="ewald">  11638.86656831 </i>
    <i name="hartreedc"> -13861.51712141 </i>
    <i name="XCdc">    247.81406239 </i>
    <i name="pawpsdc">   7452.83514686 </i>
    <i name="pawaedc">  -7465.09850631 </i>
    <i name="eentropy">     -0.00224758 </i>
    <i name="bandstr">   -855.72564277 </i>
    <i name="atom">   2648.70517965 </i>
    <i name="e_fr_energy">   -166.07397669 </i>
    <i name="e_wo_entrp">   -166.07172911 </i>
    <i name="e_0_energy">   -166.07285290 </i>
   </energy>
  </scstep>
  <structure>
   <crystal>
    <varray name="basis" >
     <v>       7.40170591       0.00000000       0.00000000 </v>
     <v>      -3.70085295       6.41006527       0.00000000 </v>
     <v>       0.00000000       0.00000000      20.00000000 </v>
    </varray>
    <i name="volume">    948.90835877 </i>
    <varray name="rec_basis" >
     <v>       0.13510399       0.07800233       0.00000000 </v>
     <v>       0.00000000       0.15600465       0.00000000 </v>
     <v>       0.00000000       0.00000000       0.05000000 </v>
    </varray>
   </crystal>
   <varray name="positions" >
    <v>       0.00135104       0.00000000       0.50000000 </v>
    <v>       0.33333333       0.00000000       0.50000000 </v>
    <v>       0.66666667       0.00000000       0.50000000 </v>
    <v>       0.00000000       0.33333333       0.50000000 </v>
    <v>       0.33333333       0.33333333       0.50000000 </v>
    <v>       0.66666667       0.33333333       0.50000000 </v>
    <v>       0.00000000       0.66666667       0.50000000 </v>
    <v>       0.33333333       0.66666667       0.50000000 </v>
    <v>       0.66666667       0.66666667       0.50000000 </v>
    <v>       0.22357326       0.11111111       0.50000000 </v>
    <v>       0.55555556       0.11111111       0.50000000 </v>
    <v>       0.88888889       0.11111111       0.50000000 </v>
    <v>       0.22222222       0.44444444       0.50000000 </v>
    <v>       0.55555556       0.44444444       0.50000000 </v>
    <v>       0.88888889       0.44444444       0.50000000 </v>
    <v>       0.22222222       0.77777778       0.50000000 </v>
    <v>       0.55555556       0.77777778       0.50000000 </v>
    <v>       0.88888889       0.77777778       0.50000000 </v>
   </varray>
  </structure>
  <varray name="forces" >
   <v>      -0.38893327       0.05001588      -0.00000000 </v>
   <v>       0.25866181      -0.07210263      -0.00000000 </v>
   <v>       0.04880249       0.01377404       0.00000000 </v>
   <v>      -0.02417400      -0.02258834       0.00000000 </v>
   <v>       0.10219518       0.04532144      -0.00000000 </v>
   <v>       0.01241361      -0.02321329      -0.00000000 </v>
   <v>       0.01622051      -0.01852106       0.00000000 </v>
   <v>       0.01152426      -0.01043475      -0.00000000 </v>
   <v>      -0.02486895       0.02906937      -0.00000000 </v>
   <v>      -0.40221476       0.05993625       0.00000000 </v>
   <v>       0.04994302       0.01352937      -0.00000000 </v>
   <v>       0.24661032      -0.06449563      -0.00000000 </v>
   <v>       0.01614146      -0.01877218      -0.00000000 </v>
   <v>      -0.02485698       0.02912613      -0.00000000 </v>
   <v>       0.01167916      -0.01079202      -0.00000000 </v>
   <v>      -0.02393028      -0.02306711       0.00000000 </v>
   <v>       0.01240620      -0.02335499      -0.00000000 </v>
   <v>       0.10238023       0.04656953       0.00000000 </v>
  </varray>
  <varray name="stress" >
   <v>      -0.14917152      -0.01285253       0.00000000 </v>
   <v>      -0.01285253      -0.16079348       0.00000000 </v>
   <v>       0.00000000       0.00000000      -0.56474414 </v>
  </varray>
  <energy>
   <i name="e_fr_energy">   -166.07397669 </i>
   <i name="e_wo_entrp">   -166.07172911 </i>
   <i name="e_0_energy">   -166.07285290 </i>
  </energy>
  <time name="totalsc">  142.29  142.96</time>
  <eigenvalues>
   <array>
    <dimension dim="1">band</dimension>
    <dimension dim="2">kpoint</dimension>
    <dimension dim="3">spin</dimension>
    <field>eigene</field>
    <field>occ</field>
    <set>
     <set comment="spin 1">
      <set comment="kpoint 1">
       <r>  -22.2561    1.0000 </r>
       <r>  -19.7021    1.0000 </r>
       <r>  -19.6781    1.0000 </r>
       <r>  -19.6744    1.0000 </r>
       <r>  -19.6723    1.0000 </r>
       <r>  -19.6686    1.0000 </r>
       <r>  -19.6449    1.0000 </r>
       <r>  -15.3561    1.0000 </r>
       <r>  -15.3442    1.0000 </r>
       <r>  -15.3372    1.0000 </r>
       <r>  -15.3256    1.0000 </r>
       <r>  -13.2922    1.0000 </r>
       <r>  -13.2875    1.0000 </r>
       <r>  -12.3970    1.0000 </r>
       <r>  -12.3835    1.0000 </r>
       <r>  -12.3807    1.0000 </r>
       <r>  -12.3687    1.0000 </r>
       <r>  -12.3658    1.0000 </r>
       <r>  -12.3520    1.0000 </r>
       <r>  -10.3600    1.0000 </r>
       <r>   -8.5534    1.0000 </r>
       <r>   -8.5352    1.0000 </r>
       <r>   -8.5242    1.0000 </r>
       <r>   -8.5229    1.0000 </r>
       <r>   -8.5117    1.0000 </r>
       <r>   -8.4936    1.0000 </r>
       <r>   -7.3946    1.0000 </r>
       <r>   -7.3729    1.0000 </r>
       <r>   -7.3719    1.0000 </r>
       <r>   -7.3698    1.0000 </r>
       <r>   -7.3688    1.0000 </r>
       <r>   -7.3474    1.0000 </r>
       <r>   -5.7845    1.0000 </r>
       <r>   -5.7843    1.0000 </r>
       <r>   -2.7652    0.6109 </r>
       <r>   -2.7601    0.5543 </r>
       <r>   -2.7503    0.4446 </r>
       <r>   -2.7454    0.3902 </r>
       <r>    0.5196    0.0000 </r>
       <r>    1.3119    0.0000 </r>
       <r>    1.6352    0.0000 </r>
       <r>    2.1209    0.0000 </r>
       <r>    2.1393    0.0000 </r>
       <r>    2.1441    0.0000 </r>
       <r>    2.1507    0.0000 </r>
       <r>    2.1678    0.0000 </r>
      </set>
      <set comment="kpoint 2">
       <r>  -22.2025    1.0000 </r>
       <r>  -20.3493    1.0000 </r>
       <r>  -19.9922    1.0000 </r>
       <r>  -19.9765    1.0000 </r>
       <r>  -19.2703    1.0000 </r>
       <r>  -19.2545    1.0000 </r>
       <r>  -18.9058    1.0000 </r>
       <r>  -16.0024    1.0000 </r>
       <r>  -15.9884    1.0000 </r>
       <r>  -14.9141    1.0000 </r>
       <r>  -14.9124    1.0000 </r>
       <r>  -13.5977    1.0000 </r>
       <r>  -12.9785    1.0000 </r>
       <r>  -12.9719    1.0000 </r>
       <r>  -12.9545    1.0000 </r>
       <r>  -12.9483    1.0000 </r>
       <r>  -11.7396    1.0000 </r>
       <r>  -11.7303    1.0000 </r>
       <r>  -11.1176    1.0000 </r>
       <r>  -10.2960    1.0000 </r>
       <r>   -8.8678    1.0000 </r>
       <r>   -8.8620    1.0000 </r>
       <r>   -8.8276    1.0000 </r>
       <r>   -8.5096    1.0000 </r>
       <r>   -8.5086    1.0000 </r>
       <r>   -8.1310    1.0000 </r>
       <r>   -8.1272    1.0000 </r>
       <r>   -7.7202    1.0000 </r>
       <r>   -7.7068    1.0000 </r>
       <r>   -6.9291    1.0000 </r>
       <r>   -6.9165    1.0000 </r>
       <r>   -6.5567    1.0000 </r>
       <r>   -6.0046    1.0000 </r>
       <r>   -5.9000    1.0000 </r>
       <r>   -3.5294    1.0000 </r>
       <r>   -3.5239    1.0000 </r>
       <r>   -2.0050    0.0000 </r>
       <r>   -2.0041    0.0000 </r>
       <r>    0.5922    0.0000 </r>
       <r>    0.8748    0.0000 </r>
       <r>    1.3855    0.0000 </r>
       <r>    1.4661    0.0000 </r>
       <r>    1.4817    0.0000 </r>
       <r>    1.7097    0.0000 </r>
       <r>    2.6300    0.0000 </r>
       <r>    2.7521    0.0000 </r>
      </set>
      <set comment="kpoint 3">
       <r>  -22.2025    1.0000 </r>
       <r>  -20.3496    1.0000 </r>
       <r>  -19.9919    1.0000 </r>
       <r>  -19.9763    1.0000 </r>
       <r>  -19.2706    1.0000 </r>
       <r>  -19.2548    1.0000 </r>
       <r>  -18.9056    1.0000 </r>
       <r>  -16.0024    1.0000 </r>
       <r>  -15.9884    1.0000 </r>
       <r>  -14.9141    1.0000 </r>
       <r>  -14.9124    1.0000 </r>
       <r>  -13.5978    1.0000 </r>
       <r>  -12.9749    1.0000 </r>
       <r>  -12.9671    1.0000 </r>
       <r>  -12.9594    1.0000 </r>
       <r>  -12.9518    1.0000 </r>
       <r>  -11.7399    1.0000 </r>
       <r>  -11.7306    1.0000 </r>
       <r>  -11.1172    1.0000 </r>
       <r>  -10.2960    1.0000 </r>
       <r>   -8.8690    1.0000 </r>
       <r>   -8.8624    1.0000 </r>
       <r>   -8.8264    1.0000 </r>
       <r>   -8.5097    1.0000 </r>
       <r>   -8.5080    1.0000 </r>
       <r>   -8.1311    1.0000 </r>
       <r>   -8.1274    1.0000 </r>
       <r>   -7.7201    1.0000 </r>
       <r>   -7.7067    1.0000 </r>
       <r>   -6.9291    1.0000 </r>
       <r>   -6.9166    1.0000 </r>
       <r>   -6.5567    1.0000 </r>
       <r>   -6.0046    1.0000 </r>
       <r>   -5.9001    1.0000 </r>
       <r>   -3.5294    1.0000 </r>
       <r>   -3.5239    1.0000 </r>
       <r>   -2.0050    0.0000 </r>
       <r>   -2.0041    0.0000 </r>
       <r>    0.5922    0.0000 </r>
       <r>    0.8749    0.0000 </r>
       <r>    1.3855    0.0000 </r>
       <r>    1.4660    0.0000 </r>
       <r>    1.4817    0.0000 </r>
       <r>    1.7096    0.0000 </r>
       <r>    2.6300    0.0000 </r>
       <r>    2.7521    0.0000 </r>
      </set>
      <set comment="kpoint 4">
       <r>  -22.2025    1.0000 </r>
       <r>  -20.3493    1.0000 </r>
       <r>  -19.9900    1.0000 </r>
       <r>  -19.9786    1.0000 </r>
       <r>  -19.2686    1.0000 </r>
       <r>  -19.2563    1.0000 </r>
       <r>  -18.9058    1.0000 </r>
       <r>  -16.0049    1.0000 </r>
       <r>  -15.9858    1.0000 </r>
       <r>  -14.9200    1.0000 </r>
       <r>  -14.9066    1.0000 </r>
       <r>  -13.5978    1.0000 </r>
       <r>  -12.9766    1.0000 </r>
       <r>  -12.9693    1.0000 </r>
       <r>  -12.9564    1.0000 </r>
       <r>  -12.9508    1.0000 </r>
       <r>  -11.7392    1.0000 </r>
       <r>  -11.7310    1.0000 </r>
       <r>  -11.1175    1.0000 </r>
       <r>  -10.2960    1.0000 </r>
       <r>   -8.8758    1.0000 </r>
       <r>   -8.8529    1.0000 </r>
       <r>   -8.8289    1.0000 </r>
       <r>   -8.5201    1.0000 </r>
       <r>   -8.4974    1.0000 </r>
       <r>   -8.1315    1.0000 </r>
       <r>   -8.1272    1.0000 </r>
       <r>   -7.7195    1.0000 </r>
       <r>   -7.7075    1.0000 </r>
       <r>   -6.9285    1.0000 </r>
       <r>   -6.9169    1.0000 </r>
       <r>   -6.5568    1.0000 </r>
       <r>   -6.0045    1.0000 </r>
       <r>   -5.9002    1.0000 </r>
       <r>   -3.5302    1.0000 </r>
       <r>   -3.5230    1.0000 </r>
       <r>   -2.0058    0.0000 </r>
       <r>   -2.0034    0.0000 </r>
       <r>    0.5922    0.0000 </r>
       <r>    0.8749    0.0000 </r>
       <r>    1.3855    0.0000 </r>
       <r>    1.4682    0.0000 </r>
       <r>    1.4793    0.0000 </r>
       <r>    1.7096    0.0000 </r>
       <r>    2.6300    0.0000 </r>
       <r>    2.7541    0.0000 </r>
      </set>
      <set comment="kpoint 5">
       <r>  -22.0420    1.0000 </r>
       <r>  -20.9267    1.0000 </r>
       <r>  -20.2006    1.0000 </r>
       <r>  -20.1850    1.0000 </r>
       <r>  -18.7633    1.0000 </r>
       <r>  -18.7474    1.0000 </r>
       <r>  -18.0628    1.0000 </r>
       <r>  -16.7529    1.0000 </r>
       <r>  -16.7375    1.0000 </r>
       <r>  -14.7532    1.0000 </r>
       <r>  -14.6262    1.0000 </r>
       <r>  -14.6229    1.0000 </r>
       <r>  -13.5031    1.0000 </r>
       <r>  -13.4957    1.0000 </r>
       <r>  -12.1891    1.0000 </r>
       <r>  -12.1787    1.0000 </r>
       <r>  -11.1030    1.0000 </r>
       <r>  -11.0929    1.0000 </r>
       <r>  -10.1048    1.0000 </r>
       <r>   -9.8606    1.0000 </r>
       <r>   -9.4992    1.0000 </r>
       <r>   -9.4909    1.0000 </r>
       <r>   -9.0386    1.0000 </r>
       <r>   -8.7918    1.0000 </r>
       <r>   -8.7621    1.0000 </r>
       <r>   -8.7594    1.0000 </r>
       <r>   -7.9515    1.0000 </r>
       <r>   -7.9380    1.0000 </r>
       <r>   -7.6712    1.0000 </r>
       <r>   -6.6223    1.0000 </r>
       <r>   -6.3835    1.0000 </r>
       <r>   -6.3716    1.0000 </r>
       <r>   -6.2165    1.0000 </r>
       <r>   -5.7648    1.0000 </r>
       <r>   -4.3029    1.0000 </r>
       <r>   -4.2950    1.0000 </r>
       <r>   -1.2850    0.0000 </r>
       <r>   -1.2805    0.0000 </r>
       <r>   -0.2379    0.0000 </r>
       <r>    0.7811    0.0000 </r>
       <r>    0.7946    0.0000 </r>
       <r>    0.8102    0.0000 </r>
       <r>    1.6062    0.0000 </r>
       <r>    1.9331    0.0000 </r>
       <r>    2.3341    0.0000 </r>
       <r>    2.8514    0.0000 </r>
      </set>
      <set comment="kpoint 6">
       <r>  -22.0420    1.0000 </r>
       <r>  -20.9269    1.0000 </r>
       <r>  -20.2004    1.0000 </r>
       <r>  -20.1848    1.0000 </r>
       <r>  -18.7634    1.0000 </r>
       <r>  -18.7475    1.0000 </r>
       <r>  -18.0628    1.0000 </r>
       <r>  -16.7530    1.0000 </r>
       <r>  -16.7375    1.0000 </r>
       <r>  -14.7537    1.0000 </r>
       <r>  -14.6258    1.0000 </r>
       <r>  -14.6225    1.0000 </r>
       <r>  -13.5030    1.0000 </r>
       <r>  -13.4956    1.0000 </r>
       <r>  -12.1892    1.0000 </r>
       <r>  -12.1788    1.0000 </r>
       <r>  -11.1032    1.0000 </r>
       <r>  -11.0931    1.0000 </r>
       <r>  -10.1047    1.0000 </r>
       <r>   -9.8600    1.0000 </r>
       <r>   -9.4996    1.0000 </r>
       <r>   -9.4913    1.0000 </r>
       <r>   -9.0380    1.0000 </r>
       <r>   -8.7919    1.0000 </r>
       <r>   -8.7621    1.0000 </r>
       <r>   -8.7593    1.0000 </r>
       <r>   -7.9514    1.0000 </r>
       <r>   -7.9379    1.0000 </r>
       <r>   -7.6711    1.0000 </r>
       <r>   -6.6222    1.0000 </r>
       <r>   -6.3835    1.0000 </r>
       <r>   -6.3716    1.0000 </r>
       <r>   -6.2167    1.0000 </r>
       <r>   -5.7648    1.0000 </r>
       <r>   -4.3028    1.0000 </r>
       <r>   -4.2950    1.0000 </r>
       <r>   -1.2850    0.0000 </r>
       <r>   -1.2806    0.0000 </r>
       <r>   -0.2378    0.0000 </r>
       <r>    0.7811    0.0000 </r>
       <r>    0.7946    0.0000 </r>
       <r>    0.8102    0.0000 </r>
       <r>    1.6062    0.0000 </r>
       <r>    1.9331    0.0000 </r>
       <r>    2.3341    0.0000 </r>
       <r>    2.8514    0.0000 </r>
      </set>
      <set comment="kpoint 7">
       <r>  -22.0420    1.0000 </r>
       <r>  -20.9267    1.0000 </r>
       <r>  -20.1983    1.0000 </r>
       <r>  -20.1872    1.0000 </r>
       <r>  -18.7620    1.0000 </r>
       <r>  -18.7488    1.0000 </r>
       <r>  -18.0628    1.0000 </r>
       <r>  -16.7538    1.0000 </r>
       <r>  -16.7365    1.0000 </r>
       <r>  -14.7534    1.0000 </r>
       <r>  -14.6288    1.0000 </r>
       <r>  -14.6200    1.0000 </r>
       <r>  -13.5024    1.0000 </r>
       <r>  -13.4964    1.0000 </r>
       <r>  -12.1878    1.0000 </r>
       <r>  -12.1800    1.0000 </r>
       <r>  -11.1026    1.0000 </r>
       <r>  -11.0934    1.0000 </r>
       <r>  -10.1048    1.0000 </r>
       <r>   -9.8609    1.0000 </r>
       <r>   -9.5053    1.0000 </r>
       <r>   -9.4846    1.0000 </r>
       <r>   -9.0383    1.0000 </r>
       <r>   -8.7918    1.0000 </r>
       <r>   -8.7710    1.0000 </r>
       <r>   -8.7504    1.0000 </r>
       <r>   -7.9508    1.0000 </r>
       <r>   -7.9387    1.0000 </r>
       <r>   -7.6712    1.0000 </r>
       <r>   -6.6221    1.0000 </r>
       <r>   -6.3832    1.0000 </r>
       <r>   -6.3719    1.0000 </r>
       <r>   -6.2168    1.0000 </r>
       <r>   -5.7648    1.0000 </r>
       <r>   -4.3033    1.0000 </r>
       <r>   -4.2945    1.0000 </r>
       <r>   -1.2831    0.0000 </r>
       <r>   -1.2825    0.0000 </r>
       <r>   -0.2379    0.0000 </r>
       <r>    0.7834    0.0000 </r>
       <r>    0.7922    0.0000 </r>
       <r>    0.8102    0.0000 </r>
       <r>    1.6062    0.0000 </r>
       <r>    1.9331    0.0000 </r>
       <r>    2.3341    0.0000 </r>
       <r>    2.8514    0.0000 </r>
      </set>
      <set comment="kpoint 8">
       <r>  -21.7753    1.0000 </r>
       <r>  -21.4026    1.0000 </r>
       <r>  -20.3051    1.0000 </r>
       <r>  -20.2896    1.0000 </r>
       <r>  -18.1662    1.0000 </r>
       <r>  -18.1503    1.0000 </r>
       <r>  -17.4893    1.0000 </r>
       <r>  -17.4735    1.0000 </r>
       <r>  -17.2286    1.0000 </r>
       <r>  -15.7458    1.0000 </r>
       <r>  -14.3253    1.0000 </r>
       <r>  -14.3198    1.0000 </r>
       <r>  -13.9541    1.0000 </r>
       <r>  -13.9474    1.0000 </r>
       <r>  -11.2643    1.0000 </r>
       <r>  -11.2533    1.0000 </r>
       <r>  -10.6030    1.0000 </r>
       <r>  -10.5916    1.0000 </r>
       <r>  -10.3328    1.0000 </r>
       <r>  -10.3226    1.0000 </r>
       <r>   -9.7879    1.0000 </r>
       <r>   -9.3482    1.0000 </r>
       <r>   -9.1459    1.0000 </r>
       <r>   -9.0910    1.0000 </r>
       <r>   -9.0879    1.0000 </r>
       <r>   -8.6459    1.0000 </r>
       <r>   -8.0680    1.0000 </r>
       <r>   -8.0543    1.0000 </r>
       <r>   -7.5383    1.0000 </r>
       <r>   -7.1691    1.0000 </r>
       <r>   -6.6635    1.0000 </r>
       <r>   -5.7526    1.0000 </r>
       <r>   -5.7416    1.0000 </r>
       <r>   -5.1983    1.0000 </r>
       <r>   -5.0518    1.0000 </r>
       <r>   -5.0422    1.0000 </r>
       <r>   -0.9703    0.0000 </r>
       <r>   -0.5886    0.0000 </r>
       <r>   -0.5807    0.0000 </r>
       <r>    0.0965    0.0000 </r>
       <r>    0.1074    0.0000 </r>
       <r>    1.1734    0.0000 </r>
       <r>    1.6817    0.0000 </r>
       <r>    1.9736    0.0000 </r>
       <r>    2.3055    0.0000 </r>
       <r>    2.4866    0.0000 </r>
      </set>
      <set comment="kpoint 9">
       <r>  -21.7751    1.0000 </r>
       <r>  -21.4030    1.0000 </r>
       <r>  -20.3050    1.0000 </r>
       <r>  -20.2894    1.0000 </r>
       <r>  -18.1663    1.0000 </r>
       <r>  -18.1503    1.0000 </r>
       <r>  -17.4896    1.0000 </r>
       <r>  -17.4737    1.0000 </r>
       <r>  -17.2283    1.0000 </r>
       <r>  -15.7457    1.0000 </r>
       <r>  -14.3250    1.0000 </r>
       <r>  -14.3195    1.0000 </r>
       <r>  -13.9542    1.0000 </r>
       <r>  -13.9475    1.0000 </r>
       <r>  -11.2645    1.0000 </r>
       <r>  -11.2535    1.0000 </r>
       <r>  -10.6034    1.0000 </r>
       <r>  -10.5920    1.0000 </r>
       <r>  -10.3328    1.0000 </r>
       <r>  -10.3225    1.0000 </r>
       <r>   -9.7878    1.0000 </r>
       <r>   -9.3484    1.0000 </r>
       <r>   -9.1452    1.0000 </r>
       <r>   -9.0907    1.0000 </r>
       <r>   -9.0878    1.0000 </r>
       <r>   -8.6459    1.0000 </r>
       <r>   -8.0679    1.0000 </r>
       <r>   -8.0543    1.0000 </r>
       <r>   -7.5383    1.0000 </r>
       <r>   -7.1684    1.0000 </r>
       <r>   -6.6642    1.0000 </r>
       <r>   -5.7526    1.0000 </r>
       <r>   -5.7416    1.0000 </r>
       <r>   -5.1986    1.0000 </r>
       <r>   -5.0517    1.0000 </r>
       <r>   -5.0420    1.0000 </r>
       <r>   -0.9702    0.0000 </r>
       <r>   -0.5887    0.0000 </r>
       <r>   -0.5808    0.0000 </r>
       <r>    0.0966    0.0000 </r>
       <r>    0.1075    0.0000 </r>
       <r>    1.1734    0.0000 </r>
       <r>    1.6817    0.0000 </r>
       <r>    1.9736    0.0000 </r>
       <r>    2.3055    0.0000 </r>
       <r>    2.4866    0.0000 </r>
      </set>
      <set comment="kpoint 10">
       <r>  -21.7753    1.0000 </r>
       <r>  -21.4026    1.0000 </r>
       <r>  -20.3028    1.0000 </r>
       <r>  -20.2918    1.0000 </r>
       <r>  -18.1655    1.0000 </r>
       <r>  -18.1513    1.0000 </r>
       <r>  -17.4890    1.0000 </r>
       <r>  -17.4735    1.0000 </r>
       <r>  -17.2288    1.0000 </r>
       <r>  -15.7456    1.0000 </r>
       <r>  -14.3259    1.0000 </r>
       <r>  -14.3191    1.0000 </r>
       <r>  -13.9539    1.0000 </r>
       <r>  -13.9478    1.0000 </r>
       <r>  -11.2655    1.0000 </r>
       <r>  -11.2523    1.0000 </r>
       <r>  -10.6023    1.0000 </r>
       <r>  -10.5922    1.0000 </r>
       <r>  -10.3366    1.0000 </r>
       <r>  -10.3192    1.0000 </r>
       <r>   -9.7879    1.0000 </r>
       <r>   -9.3483    1.0000 </r>
       <r>   -9.1458    1.0000 </r>
       <r>   -9.0987    1.0000 </r>
       <r>   -9.0801    1.0000 </r>
       <r>   -8.6455    1.0000 </r>
       <r>   -8.0672    1.0000 </r>
       <r>   -8.0551    1.0000 </r>
       <r>   -7.5380    1.0000 </r>
       <r>   -7.1687    1.0000 </r>
       <r>   -6.6642    1.0000 </r>
       <r>   -5.7525    1.0000 </r>
       <r>   -5.7417    1.0000 </r>
       <r>   -5.1980    1.0000 </r>
       <r>   -5.0521    1.0000 </r>
       <r>   -5.0421    1.0000 </r>
       <r>   -0.9701    0.0000 </r>
       <r>   -0.5866    0.0000 </r>
       <r>   -0.5831    0.0000 </r>
       <r>    0.0989    0.0000 </r>
       <r>    0.1052    0.0000 </r>
       <r>    1.1734    0.0000 </r>
       <r>    1.6817    0.0000 </r>
       <r>    1.9736    0.0000 </r>
       <r>    2.3055    0.0000 </r>
       <r>    2.4866    0.0000 </r>
      </set>
      <set comment="kpoint 11">
       <r>  -22.0955    1.0000 </r>
       <r>  -20.6211    1.0000 </r>
       <r>  -20.6011    1.0000 </r>
       <r>  -19.5293    1.0000 </r>
       <r>  -19.5095    1.0000 </r>
       <r>  -18.4653    1.0000 </r>
       <r>  -18.4445    1.0000 </r>
       <r>  -16.7789    1.0000 </r>
       <r>  -16.1617    1.0000 </r>
       <r>  -15.2405    1.0000 </r>
       <r>  -14.2550    1.0000 </r>
       <r>  -14.1674    1.0000 </r>
       <r>  -14.1497    1.0000 </r>
       <r>  -12.6056    1.0000 </r>
       <r>  -12.3181    1.0000 </r>
       <r>  -12.2957    1.0000 </r>
       <r>  -12.2711    1.0000 </r>
       <r>  -10.4957    1.0000 </r>
       <r>  -10.4771    1.0000 </r>
       <r>  -10.1684    1.0000 </r>
       <r>   -9.1848    1.0000 </r>
       <r>   -9.1691    1.0000 </r>
       <r>   -9.1329    1.0000 </r>
       <r>   -9.1137    1.0000 </r>
       <r>   -8.4340    1.0000 </r>
       <r>   -8.4181    1.0000 </r>
       <r>   -8.0829    1.0000 </r>
       <r>   -8.0658    1.0000 </r>
       <r>   -7.1986    1.0000 </r>
       <r>   -7.1830    1.0000 </r>
       <r>   -6.4083    1.0000 </r>
       <r>   -6.1315    1.0000 </r>
       <r>   -6.1128    1.0000 </r>
       <r>   -6.0960    1.0000 </r>
       <r>   -4.2579    1.0000 </r>
       <r>   -3.8993    1.0000 </r>
       <r>   -1.7105    0.0000 </r>
       <r>   -1.2651    0.0000 </r>
       <r>    0.2643    0.0000 </r>
       <r>    0.2819    0.0000 </r>
       <r>    0.7376    0.0000 </r>
       <r>    1.5327    0.0000 </r>
       <r>    1.8586    0.0000 </r>
       <r>    2.0027    0.0000 </r>
       <r>    2.0209    0.0000 </r>
       <r>    2.7776    0.0000 </r>
      </set>
      <set comment="kpoint 12">
       <r>  -22.0955    1.0000 </r>
       <r>  -20.6207    1.0000 </r>
       <r>  -20.6015    1.0000 </r>
       <r>  -19.5247    1.0000 </r>
       <r>  -19.5141    1.0000 </r>
       <r>  -18.4650    1.0000 </r>
       <r>  -18.4447    1.0000 </r>
       <r>  -16.7789    1.0000 </r>
       <r>  -16.1616    1.0000 </r>
       <r>  -15.2405    1.0000 </r>
       <r>  -14.2563    1.0000 </r>
       <r>  -14.1663    1.0000 </r>
       <r>  -14.1496    1.0000 </r>
       <r>  -12.6047    1.0000 </r>
       <r>  -12.3123    1.0000 </r>
       <r>  -12.3022    1.0000 </r>
       <r>  -12.2713    1.0000 </r>
       <r>  -10.4982    1.0000 </r>
       <r>  -10.4746    1.0000 </r>
       <r>  -10.1684    1.0000 </r>
       <r>   -9.1974    1.0000 </r>
       <r>   -9.1593    1.0000 </r>
       <r>   -9.1250    1.0000 </r>
       <r>   -9.1184    1.0000 </r>
       <r>   -8.4335    1.0000 </r>
       <r>   -8.4187    1.0000 </r>
       <r>   -8.0851    1.0000 </r>
       <r>   -8.0638    1.0000 </r>
       <r>   -7.1971    1.0000 </r>
       <r>   -7.1846    1.0000 </r>
       <r>   -6.4082    1.0000 </r>
       <r>   -6.1317    1.0000 </r>
       <r>   -6.1096    1.0000 </r>
       <r>   -6.0992    1.0000 </r>
       <r>   -4.2578    1.0000 </r>
       <r>   -3.8993    1.0000 </r>
       <r>   -1.7105    0.0000 </r>
       <r>   -1.2652    0.0000 </r>
       <r>    0.2715    0.0000 </r>
       <r>    0.2747    0.0000 </r>
       <r>    0.7376    0.0000 </r>
       <r>    1.5327    0.0000 </r>
       <r>    1.8586    0.0000 </r>
       <r>    2.0024    0.0000 </r>
       <r>    2.0212    0.0000 </r>
       <r>    2.7776    0.0000 </r>
      </set>
      <set comment="kpoint 13">
       <r>  -22.0955    1.0000 </r>
       <r>  -20.6113    1.0000 </r>
       <r>  -20.6109    1.0000 </r>
       <r>  -19.5196    1.0000 </r>
       <r>  -19.5194    1.0000 </r>
       <r>  -18.4549    1.0000 </r>
       <r>  -18.4546    1.0000 </r>
       <r>  -16.7788    1.0000 </r>
       <r>  -16.1618    1.0000 </r>
       <r>  -15.2404    1.0000 </r>
       <r>  -14.2553    1.0000 </r>
       <r>  -14.1587    1.0000 </r>
       <r>  -14.1586    1.0000 </r>
       <r>  -12.6050    1.0000 </r>
       <r>  -12.3102    1.0000 </r>
       <r>  -12.3068    1.0000 </r>
       <r>  -12.2680    1.0000 </r>
       <r>  -10.4865    1.0000 </r>
       <r>  -10.4865    1.0000 </r>
       <r>  -10.1684    1.0000 </r>
       <r>   -9.1803    1.0000 </r>
       <r>   -9.1771    1.0000 </r>
       <r>   -9.1230    1.0000 </r>
       <r>   -9.1199    1.0000 </r>
       <r>   -8.4262    1.0000 </r>
       <r>   -8.4260    1.0000 </r>
       <r>   -8.0746    1.0000 </r>
       <r>   -8.0743    1.0000 </r>
       <r>   -7.1910    1.0000 </r>
       <r>   -7.1908    1.0000 </r>
       <r>   -6.4082    1.0000 </r>
       <r>   -6.1316    1.0000 </r>
       <r>   -6.1044    1.0000 </r>
       <r>   -6.1042    1.0000 </r>
       <r>   -4.2578    1.0000 </r>
       <r>   -3.8994    1.0000 </r>
       <r>   -1.7104    0.0000 </r>
       <r>   -1.2652    0.0000 </r>
       <r>    0.2730    0.0000 </r>
       <r>    0.2730    0.0000 </r>
       <r>    0.7376    0.0000 </r>
       <r>    1.5327    0.0000 </r>
       <r>    1.8586    0.0000 </r>
       <r>    2.0118    0.0000 </r>
       <r>    2.0119    0.0000 </r>
       <r>    2.7776    0.0000 </r>
      </set>
      <set comment="kpoint 14">
       <r>  -21.8818    1.0000 </r>
       <r>  -21.1381    1.0000 </r>
       <r>  -20.7687    1.0000 </r>
       <r>  -19.6746    1.0000 </r>
       <r>  -18.9579    1.0000 </r>
       <r>  -17.9171    1.0000 </r>
       <r>  -17.5945    1.0000 </r>
       <r>  -17.5717    1.0000 </r>
       <r>  -16.6711    1.0000 </r>
       <r>  -15.2541    1.0000 </r>
       <r>  -15.2501    1.0000 </r>
       <r>  -14.6346    1.0000 </r>
       <r>  -13.7274    1.0000 </r>
       <r>  -12.8214    1.0000 </r>
       <r>  -11.8987    1.0000 </r>
       <r>  -11.6825    1.0000 </r>
       <r>  -11.3889    1.0000 </r>
       <r>  -10.0398    1.0000 </r>
       <r>   -9.9167    1.0000 </r>
       <r>   -9.9143    1.0000 </r>
       <r>   -9.7115    1.0000 </r>
       <r>   -9.6297    1.0000 </r>
       <r>   -9.2860    1.0000 </r>
       <r>   -9.2605    1.0000 </r>
       <r>   -9.0376    1.0000 </r>
       <r>   -8.6067    1.0000 </r>
       <r>   -8.2587    1.0000 </r>
       <r>   -7.5789    1.0000 </r>
       <r>   -7.3543    1.0000 </r>
       <r>   -7.1426    1.0000 </r>
       <r>   -6.5674    1.0000 </r>
       <r>   -6.5464    1.0000 </r>
       <r>   -5.5820    1.0000 </r>
       <r>   -5.3853    1.0000 </r>
       <r>   -5.0740    1.0000 </r>
       <r>   -4.4328    1.0000 </r>
       <r>   -1.2966    0.0000 </r>
       <r>   -0.6856    0.0000 </r>
       <r>   -0.4247    0.0000 </r>
       <r>   -0.2978    0.0000 </r>
       <r>    1.0282    0.0000 </r>
       <r>    1.2242    0.0000 </r>
       <r>    1.8268    0.0000 </r>
       <r>    2.0446    0.0000 </r>
       <r>    2.1565    0.0000 </r>
       <r>    2.4029    0.0000 </r>
      </set>
      <set comment="kpoint 15">
       <r>  -21.8818    1.0000 </r>
       <r>  -21.1383    1.0000 </r>
       <r>  -20.7686    1.0000 </r>
       <r>  -19.6744    1.0000 </r>
       <r>  -18.9582    1.0000 </r>
       <r>  -17.9170    1.0000 </r>
       <r>  -17.5955    1.0000 </r>
       <r>  -17.5708    1.0000 </r>
       <r>  -16.6711    1.0000 </r>
       <r>  -15.2559    1.0000 </r>
       <r>  -15.2480    1.0000 </r>
       <r>  -14.6349    1.0000 </r>
       <r>  -13.7271    1.0000 </r>
       <r>  -12.8211    1.0000 </r>
       <r>  -11.8989    1.0000 </r>
       <r>  -11.6827    1.0000 </r>
       <r>  -11.3892    1.0000 </r>
       <r>  -10.0409    1.0000 </r>
       <r>   -9.9174    1.0000 </r>
       <r>   -9.9143    1.0000 </r>
       <r>   -9.7108    1.0000 </r>
       <r>   -9.6286    1.0000 </r>
       <r>   -9.2821    1.0000 </r>
       <r>   -9.2640    1.0000 </r>
       <r>   -9.0377    1.0000 </r>
       <r>   -8.6067    1.0000 </r>
       <r>   -8.2589    1.0000 </r>
       <r>   -7.5785    1.0000 </r>
       <r>   -7.3542    1.0000 </r>
       <r>   -7.1425    1.0000 </r>
       <r>   -6.5676    1.0000 </r>
       <r>   -6.5468    1.0000 </r>
       <r>   -5.5816    1.0000 </r>
       <r>   -5.3856    1.0000 </r>
       <r>   -5.0740    1.0000 </r>
       <r>   -4.4327    1.0000 </r>
       <r>   -1.2966    0.0000 </r>
       <r>   -0.6851    0.0000 </r>
       <r>   -0.4256    0.0000 </r>
       <r>   -0.2974    0.0000 </r>
       <r>    1.0282    0.0000 </r>
       <r>    1.2244    0.0000 </r>
       <r>    1.8268    0.0000 </r>
       <r>    2.0446    0.0000 </r>
       <r>    2.1565    0.0000 </r>
       <r>    2.4029    0.0000 </r>
      </set>
      <set comment="kpoint 16">
       <r>  -21.8819    1.0000 </r>
       <r>  -21.1379    1.0000 </r>
       <r>  -20.7688    1.0000 </r>
       <r>  -19.6745    1.0000 </r>
       <r>  -18.9582    1.0000 </r>
       <r>  -17.9166    1.0000 </r>
       <r>  -17.5935    1.0000 </r>
       <r>  -17.5729    1.0000 </r>
       <r>  -16.6712    1.0000 </r>
       <r>  -15.2551    1.0000 </r>
       <r>  -15.2487    1.0000 </r>
       <r>  -14.6349    1.0000 </r>
       <r>  -13.7276    1.0000 </r>
       <r>  -12.8210    1.0000 </r>
       <r>  -11.8993    1.0000 </r>
       <r>  -11.6824    1.0000 </r>
       <r>  -11.3887    1.0000 </r>
       <r>  -10.0398    1.0000 </r>
       <r>   -9.9167    1.0000 </r>
       <r>   -9.9143    1.0000 </r>
       <r>   -9.7123    1.0000 </r>
       <r>   -9.6296    1.0000 </r>
       <r>   -9.2823    1.0000 </r>
       <r>   -9.2634    1.0000 </r>
       <r>   -9.0375    1.0000 </r>
       <r>   -8.6068    1.0000 </r>
       <r>   -8.2587    1.0000 </r>
       <r>   -7.5788    1.0000 </r>
       <r>   -7.3542    1.0000 </r>
       <r>   -7.1423    1.0000 </r>
       <r>   -6.5676    1.0000 </r>
       <r>   -6.5467    1.0000 </r>
       <r>   -5.5815    1.0000 </r>
       <r>   -5.3855    1.0000 </r>
       <r>   -5.0742    1.0000 </r>
       <r>   -4.4328    1.0000 </r>
       <r>   -1.2966    0.0000 </r>
       <r>   -0.6852    0.0000 </r>
       <r>   -0.4249    0.0000 </r>
       <r>   -0.2982    0.0000 </r>
       <r>    1.0282    0.0000 </r>
       <r>    1.2244    0.0000 </r>
       <r>    1.8268    0.0000 </r>
       <r>    2.0446    0.0000 </r>
       <r>    2.1565    0.0000 </r>
       <r>    2.4029    0.0000 </r>
      </set>
      <set comment="kpoint 17">
       <r>  -21.8818    1.0000 </r>
       <r>  -21.1381    1.0000 </r>
       <r>  -20.7687    1.0000 </r>
       <r>  -19.6745    1.0000 </r>
       <r>  -18.9580    1.0000 </r>
       <r>  -17.9171    1.0000 </r>
       <r>  -17.5945    1.0000 </r>
       <r>  -17.5717    1.0000 </r>
       <r>  -16.6710    1.0000 </r>
       <r>  -15.2541    1.0000 </r>
       <r>  -15.2501    1.0000 </r>
       <r>  -14.6347    1.0000 </r>
       <r>  -13.7273    1.0000 </r>
       <r>  -12.8211    1.0000 </r>
       <r>  -11.8987    1.0000 </r>
       <r>  -11.6826    1.0000 </r>
       <r>  -11.3892    1.0000 </r>
       <r>  -10.0410    1.0000 </r>
       <r>   -9.9168    1.0000 </r>
       <r>   -9.9143    1.0000 </r>
       <r>   -9.7108    1.0000 </r>
       <r>   -9.6291    1.0000 </r>
       <r>   -9.2827    1.0000 </r>
       <r>   -9.2635    1.0000 </r>
       <r>   -9.0376    1.0000 </r>
       <r>   -8.6067    1.0000 </r>
       <r>   -8.2587    1.0000 </r>
       <r>   -7.5786    1.0000 </r>
       <r>   -7.3543    1.0000 </r>
       <r>   -7.1425    1.0000 </r>
       <r>   -6.5675    1.0000 </r>
       <r>   -6.5468    1.0000 </r>
       <r>   -5.5817    1.0000 </r>
       <r>   -5.3855    1.0000 </r>
       <r>   -5.0740    1.0000 </r>
       <r>   -4.4327    1.0000 </r>
       <r>   -1.2966    0.0000 </r>
       <r>   -0.6855    0.0000 </r>
       <r>   -0.4248    0.0000 </r>
       <r>   -0.2979    0.0000 </r>
       <r>    1.0282    0.0000 </r>
       <r>    1.2243    0.0000 </r>
       <r>    1.8268    0.0000 </r>
       <r>    2.0446    0.0000 </r>
       <r>    2.1565    0.0000 </r>
       <r>    2.4030    0.0000 </r>
      </set>
      <set comment="kpoint 18">
       <r>  -21.8818    1.0000 </r>
       <r>  -21.1383    1.0000 </r>
       <r>  -20.7685    1.0000 </r>
       <r>  -19.6745    1.0000 </r>
       <r>  -18.9581    1.0000 </r>
       <r>  -17.9170    1.0000 </r>
       <r>  -17.5951    1.0000 </r>
       <r>  -17.5712    1.0000 </r>
       <r>  -16.6712    1.0000 </r>
       <r>  -15.2615    1.0000 </r>
       <r>  -15.2423    1.0000 </r>
       <r>  -14.6348    1.0000 </r>
       <r>  -13.7273    1.0000 </r>
       <r>  -12.8211    1.0000 </r>
       <r>  -11.9000    1.0000 </r>
       <r>  -11.6817    1.0000 </r>
       <r>  -11.3889    1.0000 </r>
       <r>  -10.0401    1.0000 </r>
       <r>   -9.9175    1.0000 </r>
       <r>   -9.9143    1.0000 </r>
       <r>   -9.7111    1.0000 </r>
       <r>   -9.6293    1.0000 </r>
       <r>   -9.2822    1.0000 </r>
       <r>   -9.2639    1.0000 </r>
       <r>   -9.0377    1.0000 </r>
       <r>   -8.6066    1.0000 </r>
       <r>   -8.2587    1.0000 </r>
       <r>   -7.5787    1.0000 </r>
       <r>   -7.3542    1.0000 </r>
       <r>   -7.1425    1.0000 </r>
       <r>   -6.5675    1.0000 </r>
       <r>   -6.5466    1.0000 </r>
       <r>   -5.5819    1.0000 </r>
       <r>   -5.3854    1.0000 </r>
       <r>   -5.0740    1.0000 </r>
       <r>   -4.4328    1.0000 </r>
       <r>   -1.2966    0.0000 </r>
       <r>   -0.6854    0.0000 </r>
       <r>   -0.4251    0.0000 </r>
       <r>   -0.2977    0.0000 </r>
       <r>    1.0282    0.0000 </r>
       <r>    1.2243    0.0000 </r>
       <r>    1.8268    0.0000 </r>
       <r>    2.0447    0.0000 </r>
       <r>    2.1565    0.0000 </r>
       <r>    2.5527    0.0000 </r>
      </set>
      <set comment="kpoint 19">
       <r>  -21.8819    1.0000 </r>
       <r>  -21.1379    1.0000 </r>
       <r>  -20.7689    1.0000 </r>
       <r>  -19.6745    1.0000 </r>
       <r>  -18.9582    1.0000 </r>
       <r>  -17.9165    1.0000 </r>
       <r>  -17.5936    1.0000 </r>
       <r>  -17.5729    1.0000 </r>
       <r>  -16.6712    1.0000 </r>
       <r>  -15.2551    1.0000 </r>
       <r>  -15.2488    1.0000 </r>
       <r>  -14.6349    1.0000 </r>
       <r>  -13.7276    1.0000 </r>
       <r>  -12.8210    1.0000 </r>
       <r>  -11.8989    1.0000 </r>
       <r>  -11.6829    1.0000 </r>
       <r>  -11.3884    1.0000 </r>
       <r>  -10.0404    1.0000 </r>
       <r>   -9.9162    1.0000 </r>
       <r>   -9.9143    1.0000 </r>
       <r>   -9.7109    1.0000 </r>
       <r>   -9.6305    1.0000 </r>
       <r>   -9.2836    1.0000 </r>
       <r>   -9.2625    1.0000 </r>
       <r>   -9.0375    1.0000 </r>
       <r>   -8.6068    1.0000 </r>
       <r>   -8.2587    1.0000 </r>
       <r>   -7.5791    1.0000 </r>
       <r>   -7.3542    1.0000 </r>
       <r>   -7.1423    1.0000 </r>
       <r>   -6.5677    1.0000 </r>
       <r>   -6.5464    1.0000 </r>
       <r>   -5.5814    1.0000 </r>
       <r>   -5.3855    1.0000 </r>
       <r>   -5.0742    1.0000 </r>
       <r>   -4.4328    1.0000 </r>
       <r>   -1.2966    0.0000 </r>
       <r>   -0.6851    0.0000 </r>
       <r>   -0.4249    0.0000 </r>
       <r>   -0.2983    0.0000 </r>
       <r>    1.0282    0.0000 </r>
       <r>    1.2244    0.0000 </r>
       <r>    1.8268    0.0000 </r>
       <r>    2.0446    0.0000 </r>
       <r>    2.1565    0.0000 </r>
       <r>    2.4029    0.0000 </r>
      </set>
      <set comment="kpoint 20">
       <r>  -21.5715    1.0000 </r>
       <r>  -21.5529    1.0000 </r>
       <r>  -20.8215    1.0000 </r>
       <r>  -19.7263    1.0000 </r>
       <r>  -18.3121    1.0000 </r>
       <r>  -18.3001    1.0000 </r>
       <r>  -17.3137    1.0000 </r>
       <r>  -17.3015    1.0000 </r>
       <r>  -16.9866    1.0000 </r>
       <r>  -15.9392    1.0000 </r>
       <r>  -15.0208    1.0000 </r>
       <r>  -14.9986    1.0000 </r>
       <r>  -13.2929    1.0000 </r>
       <r>  -13.2713    1.0000 </r>
       <r>  -11.3581    1.0000 </r>
       <r>  -10.9963    1.0000 </r>
       <r>  -10.9797    1.0000 </r>
       <r>  -10.5040    1.0000 </r>
       <r>  -10.4957    1.0000 </r>
       <r>   -9.9053    1.0000 </r>
       <r>   -9.6356    1.0000 </r>
       <r>   -9.5439    1.0000 </r>
       <r>   -9.5280    1.0000 </r>
       <r>   -9.3353    1.0000 </r>
       <r>   -8.6672    1.0000 </r>
       <r>   -8.4187    1.0000 </r>
       <r>   -8.1365    1.0000 </r>
       <r>   -8.1128    1.0000 </r>
       <r>   -7.4091    1.0000 </r>
       <r>   -7.0725    1.0000 </r>
       <r>   -7.0338    1.0000 </r>
       <r>   -5.8612    1.0000 </r>
       <r>   -5.8504    1.0000 </r>
       <r>   -5.0641    1.0000 </r>
       <r>   -5.0153    1.0000 </r>
       <r>   -5.0081    1.0000 </r>
       <r>   -1.0895    0.0000 </r>
       <r>   -0.8242    0.0000 </r>
       <r>   -0.8218    0.0000 </r>
       <r>    0.4092    0.0000 </r>
       <r>    0.4121    0.0000 </r>
       <r>    1.4630    0.0000 </r>
       <r>    1.4652    0.0000 </r>
       <r>    2.2667    0.0000 </r>
       <r>    2.2676    0.0000 </r>
       <r>    2.6033    0.0000 </r>
      </set>
      <set comment="kpoint 21">
       <r>  -21.5626    1.0000 </r>
       <r>  -21.5620    1.0000 </r>
       <r>  -20.8213    1.0000 </r>
       <r>  -19.7262    1.0000 </r>
       <r>  -18.3064    1.0000 </r>
       <r>  -18.3060    1.0000 </r>
       <r>  -17.3081    1.0000 </r>
       <r>  -17.3075    1.0000 </r>
       <r>  -16.9865    1.0000 </r>
       <r>  -15.9391    1.0000 </r>
       <r>  -15.0097    1.0000 </r>
       <r>  -15.0096    1.0000 </r>
       <r>  -13.2820    1.0000 </r>
       <r>  -13.2818    1.0000 </r>
       <r>  -11.3587    1.0000 </r>
       <r>  -10.9881    1.0000 </r>
       <r>  -10.9878    1.0000 </r>
       <r>  -10.5004    1.0000 </r>
       <r>  -10.5000    1.0000 </r>
       <r>   -9.9060    1.0000 </r>
       <r>   -9.6340    1.0000 </r>
       <r>   -9.5362    1.0000 </r>
       <r>   -9.5358    1.0000 </r>
       <r>   -9.3357    1.0000 </r>
       <r>   -8.6671    1.0000 </r>
       <r>   -8.4185    1.0000 </r>
       <r>   -8.1249    1.0000 </r>
       <r>   -8.1244    1.0000 </r>
       <r>   -7.4090    1.0000 </r>
       <r>   -7.0534    1.0000 </r>
       <r>   -7.0528    1.0000 </r>
       <r>   -5.8560    1.0000 </r>
       <r>   -5.8557    1.0000 </r>
       <r>   -5.0645    1.0000 </r>
       <r>   -5.0124    1.0000 </r>
       <r>   -5.0106    1.0000 </r>
       <r>   -1.0894    0.0000 </r>
       <r>   -0.8232    0.0000 </r>
       <r>   -0.8230    0.0000 </r>
       <r>    0.4106    0.0000 </r>
       <r>    0.4108    0.0000 </r>
       <r>    1.4641    0.0000 </r>
       <r>    1.4641    0.0000 </r>
       <r>    2.2671    0.0000 </r>
       <r>    2.2671    0.0000 </r>
       <r>    2.4853    0.0000 </r>
      </set>
      <set comment="kpoint 22">
       <r>  -21.5721    1.0000 </r>
       <r>  -21.5522    1.0000 </r>
       <r>  -20.8215    1.0000 </r>
       <r>  -19.7263    1.0000 </r>
       <r>  -18.3162    1.0000 </r>
       <r>  -18.2961    1.0000 </r>
       <r>  -17.3182    1.0000 </r>
       <r>  -17.2969    1.0000 </r>
       <r>  -16.9870    1.0000 </r>
       <r>  -15.9390    1.0000 </r>
       <r>  -15.0186    1.0000 </r>
       <r>  -15.0008    1.0000 </r>
       <r>  -13.2924    1.0000 </r>
       <r>  -13.2716    1.0000 </r>
       <r>  -11.3581    1.0000 </r>
       <r>  -10.9968    1.0000 </r>
       <r>  -10.9795    1.0000 </r>
       <r>  -10.5096    1.0000 </r>
       <r>  -10.4904    1.0000 </r>
       <r>   -9.9054    1.0000 </r>
       <r>   -9.6349    1.0000 </r>
       <r>   -9.5438    1.0000 </r>
       <r>   -9.5282    1.0000 </r>
       <r>   -9.3358    1.0000 </r>
       <r>   -8.6672    1.0000 </r>
       <r>   -8.4191    1.0000 </r>
       <r>   -8.1340    1.0000 </r>
       <r>   -8.1145    1.0000 </r>
       <r>   -7.4091    1.0000 </r>
       <r>   -7.0607    1.0000 </r>
       <r>   -7.0458    1.0000 </r>
       <r>   -5.8638    1.0000 </r>
       <r>   -5.8477    1.0000 </r>
       <r>   -5.0628    1.0000 </r>
       <r>   -5.0208    1.0000 </r>
       <r>   -5.0040    1.0000 </r>
       <r>   -1.0893    0.0000 </r>
       <r>   -0.8321    0.0000 </r>
       <r>   -0.8141    0.0000 </r>
       <r>    0.4009    0.0000 </r>
       <r>    0.4204    0.0000 </r>
       <r>    1.4630    0.0000 </r>
       <r>    1.4652    0.0000 </r>
       <r>    2.2668    0.0000 </r>
       <r>    2.2675    0.0000 </r>
       <r>    2.6033    0.0000 </r>
      </set>
      <set comment="kpoint 23">
       <r>  -21.6156    1.0000 </r>
       <r>  -21.2537    1.0000 </r>
       <r>  -21.2338    1.0000 </r>
       <r>  -19.0700    1.0000 </r>
       <r>  -19.0502    1.0000 </r>
       <r>  -18.3558    1.0000 </r>
       <r>  -17.1004    1.0000 </r>
       <r>  -17.0773    1.0000 </r>
       <r>  -16.7115    1.0000 </r>
       <r>  -15.6778    1.0000 </r>
       <r>  -15.6214    1.0000 </r>
       <r>  -15.6060    1.0000 </r>
       <r>  -12.9181    1.0000 </r>
       <r>  -12.2753    1.0000 </r>
       <r>  -12.2516    1.0000 </r>
       <r>  -11.3542    1.0000 </r>
       <r>  -10.5624    1.0000 </r>
       <r>  -10.5530    1.0000 </r>
       <r>  -10.5406    1.0000 </r>
       <r>   -9.8295    1.0000 </r>
       <r>   -9.8098    1.0000 </r>
       <r>   -9.5988    1.0000 </r>
       <r>   -9.1689    1.0000 </r>
       <r>   -9.1532    1.0000 </r>
       <r>   -8.8317    1.0000 </r>
       <r>   -8.8119    1.0000 </r>
       <r>   -7.8828    1.0000 </r>
       <r>   -7.6936    1.0000 </r>
       <r>   -7.6785    1.0000 </r>
       <r>   -7.0816    1.0000 </r>
       <r>   -6.6727    1.0000 </r>
       <r>   -6.6569    1.0000 </r>
       <r>   -5.8936    1.0000 </r>
       <r>   -5.0137    1.0000 </r>
       <r>   -4.9964    1.0000 </r>
       <r>   -4.6730    1.0000 </r>
       <r>   -1.2277    0.0000 </r>
       <r>   -1.0331    0.0000 </r>
       <r>   -1.0161    0.0000 </r>
       <r>    0.5284    0.0000 </r>
       <r>    1.3916    0.0000 </r>
       <r>    1.4726    0.0000 </r>
       <r>    1.4922    0.0000 </r>
       <r>    1.8989    0.0000 </r>
       <r>    1.9013    0.0000 </r>
       <r>    2.1939    0.0000 </r>
      </set>
      <set comment="kpoint 24">
       <r>  -21.6156    1.0000 </r>
       <r>  -21.2531    1.0000 </r>
       <r>  -21.2343    1.0000 </r>
       <r>  -19.0658    1.0000 </r>
       <r>  -19.0545    1.0000 </r>
       <r>  -18.3557    1.0000 </r>
       <r>  -17.0969    1.0000 </r>
       <r>  -17.0812    1.0000 </r>
       <r>  -16.7111    1.0000 </r>
       <r>  -15.6774    1.0000 </r>
       <r>  -15.6182    1.0000 </r>
       <r>  -15.6095    1.0000 </r>
       <r>  -12.9182    1.0000 </r>
       <r>  -12.2684    1.0000 </r>
       <r>  -12.2582    1.0000 </r>
       <r>  -11.3541    1.0000 </r>
       <r>  -10.5711    1.0000 </r>
       <r>  -10.5550    1.0000 </r>
       <r>  -10.5307    1.0000 </r>
       <r>   -9.8204    1.0000 </r>
       <r>   -9.8183    1.0000 </r>
       <r>   -9.5988    1.0000 </r>
       <r>   -9.1688    1.0000 </r>
       <r>   -9.1532    1.0000 </r>
       <r>   -8.8342    1.0000 </r>
       <r>   -8.8095    1.0000 </r>
       <r>   -7.8826    1.0000 </r>
       <r>   -7.7010    1.0000 </r>
       <r>   -7.6704    1.0000 </r>
       <r>   -7.0822    1.0000 </r>
       <r>   -6.6708    1.0000 </r>
       <r>   -6.6588    1.0000 </r>
       <r>   -5.8935    1.0000 </r>
       <r>   -5.0068    1.0000 </r>
       <r>   -5.0036    1.0000 </r>
       <r>   -4.6728    1.0000 </r>
       <r>   -1.2280    0.0000 </r>
       <r>   -1.0252    0.0000 </r>
       <r>   -1.0237    0.0000 </r>
       <r>    0.5283    0.0000 </r>
       <r>    1.3916    0.0000 </r>
       <r>    1.4764    0.0000 </r>
       <r>    1.4885    0.0000 </r>
       <r>    1.8990    0.0000 </r>
       <r>    1.9012    0.0000 </r>
       <r>    2.1939    0.0000 </r>
      </set>
      <set comment="kpoint 25">
       <r>  -21.6158    1.0000 </r>
       <r>  -21.2437    1.0000 </r>
       <r>  -21.2435    1.0000 </r>
       <r>  -19.0605    1.0000 </r>
       <r>  -19.0600    1.0000 </r>
       <r>  -18.3555    1.0000 </r>
       <r>  -17.0891    1.0000 </r>
       <r>  -17.0888    1.0000 </r>
       <r>  -16.7114    1.0000 </r>
       <r>  -15.6774    1.0000 </r>
       <r>  -15.6142    1.0000 </r>
       <r>  -15.6135    1.0000 </r>
       <r>  -12.9185    1.0000 </r>
       <r>  -12.2633    1.0000 </r>
       <r>  -12.2631    1.0000 </r>
       <r>  -11.3544    1.0000 </r>
       <r>  -10.5579    1.0000 </r>
       <r>  -10.5493    1.0000 </r>
       <r>  -10.5486    1.0000 </r>
       <r>   -9.8198    1.0000 </r>
       <r>   -9.8196    1.0000 </r>
       <r>   -9.5989    1.0000 </r>
       <r>   -9.1610    1.0000 </r>
       <r>   -9.1609    1.0000 </r>
       <r>   -8.8220    1.0000 </r>
       <r>   -8.8216    1.0000 </r>
       <r>   -7.8833    1.0000 </r>
       <r>   -7.6861    1.0000 </r>
       <r>   -7.6852    1.0000 </r>
       <r>   -7.0817    1.0000 </r>
       <r>   -6.6650    1.0000 </r>
       <r>   -6.6647    1.0000 </r>
       <r>   -5.8933    1.0000 </r>
       <r>   -5.0053    1.0000 </r>
       <r>   -5.0051    1.0000 </r>
       <r>   -4.6728    1.0000 </r>
       <r>   -1.2280    0.0000 </r>
       <r>   -1.0246    0.0000 </r>
       <r>   -1.0243    0.0000 </r>
       <r>    0.5281    0.0000 </r>
       <r>    1.3916    0.0000 </r>
       <r>    1.4824    0.0000 </r>
       <r>    1.4826    0.0000 </r>
       <r>    1.9001    0.0000 </r>
       <r>    1.9001    0.0000 </r>
       <r>    2.1939    0.0000 </r>
      </set>
     </set>
    </set>
   </array>
  </eigenvalues>
  <separator name="orbital magnetization" >
   <v name="MAGDIPOLOUT">      0.00000000      0.00000000      0.00000000</v>
  </separator>
  <dos>
   <i name="efermi">     -2.75525580 </i>
   <total>
    <array>
     <dimension dim="1">gridpoints</dimension>
     <dimension dim="2">spin</dimension>
     <field>energy</field>
     <field>total</field>
     <field>integrated</field>
     <set>
      <set comment="spin 1">
       <r>   -23.5114     0.0000     0.0000 </r>
       <r>   -23.4194     0.0000     0.0000 </r>
       <r>   -23.3273     0.0000     0.0000 </r>
       <r>   -23.2353     0.0000     0.0000 </r>
       <r>   -23.1432     0.0000     0.0000 </r>
       <r>   -23.0511     0.0000     0.0000 </r>
       <r>   -22.9591     0.0000     0.0000 </r>
       <r>   -22.8670     0.0000     0.0000 </r>
       <r>   -22.7749     0.0000     0.0000 </r>
       <r>   -22.6829     0.0000     0.0000 </r>
       <r>   -22.5908     0.0000     0.0000 </r>
       <r>   -22.4988     0.0000     0.0000 </r>
       <r>   -22.4067     0.0000     0.0000 </r>
       <r>   -22.3146     0.0236     0.0022 </r>
       <r>   -22.2226     1.1018     0.1036 </r>
       <r>   -22.1305     2.3661     0.3214 </r>
       <r>   -22.0385     3.5658     0.6497 </r>
       <r>   -21.9464     1.5377     0.7913 </r>
       <r>   -21.8543     4.0204     1.1614 </r>
       <r>   -21.7623     2.8379     1.4226 </r>
       <r>   -21.6702     1.1180     1.5256 </r>
       <r>   -21.5782     3.8645     1.8813 </r>
       <r>   -21.4861     3.8786     2.2384 </r>
       <r>   -21.3940     1.6589     2.3911 </r>
       <r>   -21.3020     1.3523     2.5156 </r>
       <r>   -21.2099     4.2167     2.9038 </r>
       <r>   -21.1179     4.6327     3.3303 </r>
       <r>   -21.0258     1.5137     3.4696 </r>
       <r>   -20.9337     1.1224     3.5730 </r>
       <r>   -20.8417     2.3713     3.7913 </r>
       <r>   -20.7496     5.5205     4.2995 </r>
       <r>   -20.6576     2.1520     4.4976 </r>
       <r>   -20.5655     4.2376     4.8877 </r>
       <r>   -20.4734     0.5547     4.9388 </r>
       <r>   -20.3814     0.5391     4.9884 </r>
       <r>   -20.2893     5.1484     5.4624 </r>
       <r>   -20.1973     4.6727     5.8926 </r>
       <r>   -20.1052     2.9023     6.1597 </r>
       <r>   -20.0131     1.1653     6.2670 </r>
       <r>   -19.9211     3.9809     6.6335 </r>
       <r>   -19.8290     0.2174     6.6535 </r>
       <r>   -19.7369     1.3538     6.7781 </r>
       <r>   -19.6449     7.5637     7.4745 </r>
       <r>   -19.5528     2.6526     7.7187 </r>
       <r>   -19.4608     4.1128     8.0973 </r>
       <r>   -19.3687     0.2818     8.1232 </r>
       <r>   -19.2766     1.8420     8.2928 </r>
       <r>   -19.1846     3.3890     8.6048 </r>
       <r>   -19.0925     1.0611     8.7025 </r>
       <r>   -19.0005     4.7065     9.1358 </r>
       <r>   -18.9084     5.7789     9.6678 </r>
       <r>   -18.8163     2.0638     9.8578 </r>
       <r>   -18.7243     4.0553    10.2311 </r>
       <r>   -18.6322     1.0347    10.3264 </r>
       <r>   -18.5402     0.0518    10.3311 </r>
       <r>   -18.4481     3.0136    10.6086 </r>
       <r>   -18.3560     3.9991    10.9767 </r>
       <r>   -18.2640     5.5921    11.4915 </r>
       <r>   -18.1719     2.5292    11.7244 </r>
       <r>   -18.0799     4.1940    12.1105 </r>
       <r>   -17.9878     1.9776    12.2925 </r>
       <r>   -17.8957     3.7829    12.6408 </r>
       <r>   -17.8037     1.4597    12.7752 </r>
       <r>   -17.7116     0.0063    12.7758 </r>
       <r>   -17.6196     1.7403    12.9360 </r>
       <r>   -17.5275     8.7269    13.7394 </r>
       <r>   -17.4354     4.9486    14.1949 </r>
       <r>   -17.3434     1.4001    14.3238 </r>
       <r>   -17.2513     4.8393    14.7693 </r>
       <r>   -17.1593     2.3569    14.9863 </r>
       <r>   -17.0672     3.8180    15.3378 </r>
       <r>   -16.9751     3.0958    15.6228 </r>
       <r>   -16.8831     0.9939    15.7143 </r>
       <r>   -16.7910     1.5551    15.8575 </r>
       <r>   -16.6989     8.6958    16.6580 </r>
       <r>   -16.6069     5.5210    17.1663 </r>
       <r>   -16.5148     0.1890    17.1837 </r>
       <r>   -16.4228     0.0000    17.1837 </r>
       <r>   -16.3307     0.0000    17.1837 </r>
       <r>   -16.2386     0.0393    17.1873 </r>
       <r>   -16.1466     1.7310    17.3466 </r>
       <r>   -16.0545     1.1610    17.4535 </r>
       <r>   -15.9625     4.7573    17.8915 </r>
       <r>   -15.8704     2.8821    18.1568 </r>
       <r>   -15.7783     0.5492    18.2074 </r>
       <r>   -15.6863     3.2407    18.5057 </r>
       <r>   -15.5942     5.3430    18.9976 </r>
       <r>   -15.5022     1.5732    19.1424 </r>
       <r>   -15.4101     0.0591    19.1479 </r>
       <r>   -15.3180     1.6194    19.2969 </r>
       <r>   -15.2260    10.0139    20.2188 </r>
       <r>   -15.1339     3.3799    20.5300 </r>
       <r>   -15.0419     1.0065    20.6226 </r>
       <r>   -14.9498     4.8674    21.0707 </r>
       <r>   -14.8577     4.4625    21.4816 </r>
       <r>   -14.7657     1.2813    21.5995 </r>
       <r>   -14.6736     2.8217    21.8593 </r>
       <r>   -14.5816     8.5529    22.6467 </r>
       <r>   -14.4895     0.9555    22.7346 </r>
       <r>   -14.3974     0.0924    22.7432 </r>
       <r>   -14.3054     3.7620    23.0895 </r>
       <r>   -14.2133     4.1508    23.4716 </r>
       <r>   -14.1213     4.4894    23.8849 </r>
       <r>   -14.0292     0.8784    23.9658 </r>
       <r>   -13.9371     3.3865    24.2775 </r>
       <r>   -13.8451     1.8568    24.4485 </r>
       <r>   -13.7530     1.2520    24.5637 </r>
       <r>   -13.6609     4.0119    24.9331 </r>
       <r>   -13.5689     2.3054    25.1453 </r>
       <r>   -13.4768     4.3379    25.5447 </r>
       <r>   -13.3848     1.4117    25.6746 </r>
       <r>   -13.2927     2.4483    25.9000 </r>
       <r>   -13.2006     3.6737    26.2382 </r>
       <r>   -13.1086     0.0730    26.2449 </r>
       <r>   -13.0165     0.7999    26.3186 </r>
       <r>   -12.9245     9.4367    27.1873 </r>
       <r>   -12.8324     5.0366    27.6510 </r>
       <r>   -12.7403     3.2884    27.9537 </r>
       <r>   -12.6483     0.3543    27.9864 </r>
       <r>   -12.5562     2.1430    28.1836 </r>
       <r>   -12.4642     0.2467    28.2064 </r>
       <r>   -12.3721     1.5823    28.3520 </r>
       <r>   -12.2800     7.9374    29.0828 </r>
       <r>   -12.1880     8.7095    29.8845 </r>
       <r>   -12.0959     2.9913    30.1599 </r>
       <r>   -12.0039     0.0443    30.1640 </r>
       <r>   -11.9118     1.9049    30.3394 </r>
       <r>   -11.8197     3.3883    30.6513 </r>
       <r>   -11.7277     3.6536    30.9877 </r>
       <r>   -11.6356     6.4998    31.5860 </r>
       <r>   -11.5436     0.5063    31.6326 </r>
       <r>   -11.4515     0.2228    31.6531 </r>
       <r>   -11.3594     6.5053    32.2520 </r>
       <r>   -11.2674     6.0417    32.8082 </r>
       <r>   -11.1753     3.3551    33.1171 </r>
       <r>   -11.0833     5.5886    33.6316 </r>
       <r>   -10.9912     4.6950    34.0638 </r>
       <r>   -10.8991     2.8176    34.3232 </r>
       <r>   -10.8071     0.0361    34.3265 </r>
       <r>   -10.7150     0.0027    34.3268 </r>
       <r>   -10.6229     1.4861    34.4636 </r>
       <r>   -10.5309    11.0086    35.4771 </r>
       <r>   -10.4388    10.7039    36.4625 </r>
       <r>   -10.3468     2.8148    36.7216 </r>
       <r>   -10.2547     5.9334    37.2678 </r>
       <r>   -10.1626     2.0549    37.4570 </r>
       <r>   -10.0706     4.2737    37.8504 </r>
       <r>    -9.9785     4.9675    38.3077 </r>
       <r>    -9.8865    10.8831    39.3096 </r>
       <r>    -9.7944     9.9740    40.2279 </r>
       <r>    -9.7023     6.1942    40.7981 </r>
       <r>    -9.6103     8.8286    41.6109 </r>
       <r>    -9.5182     8.8032    42.4213 </r>
       <r>    -9.4262     5.5183    42.9293 </r>
       <r>    -9.3341     3.7394    43.2736 </r>
       <r>    -9.2420    10.4875    44.2391 </r>
       <r>    -9.1500    11.8603    45.3309 </r>
       <r>    -9.0579    14.9595    46.7081 </r>
       <r>    -8.9659     6.7852    47.3328 </r>
       <r>    -8.8738     2.9971    47.6087 </r>
       <r>    -8.7817    12.5321    48.7624 </r>
       <r>    -8.6897     6.8079    49.3891 </r>
       <r>    -8.5976     7.4450    50.0745 </r>
       <r>    -8.5056     7.0218    50.7209 </r>
       <r>    -8.4135     8.1016    51.4668 </r>
       <r>    -8.3214     3.3170    51.7721 </r>
       <r>    -8.2294     4.0771    52.1475 </r>
       <r>    -8.1373     5.4776    52.6518 </r>
       <r>    -8.0453    13.8779    53.9294 </r>
       <r>    -7.9532     5.2015    54.4082 </r>
       <r>    -7.8611     4.9944    54.8680 </r>
       <r>    -7.7691     1.1606    54.9748 </r>
       <r>    -7.6770     8.4369    55.7516 </r>
       <r>    -7.5849     6.9734    56.3935 </r>
       <r>    -7.4929     5.1984    56.8721 </r>
       <r>    -7.4008     2.9266    57.1415 </r>
       <r>    -7.3088     7.3288    57.8162 </r>
       <r>    -7.2167     2.2450    58.0229 </r>
       <r>    -7.1246    10.0806    58.9509 </r>
       <r>    -7.0326     7.8564    59.6742 </r>
       <r>    -6.9405     3.4111    59.9882 </r>
       <r>    -6.8485     3.5731    60.3171 </r>
       <r>    -6.7564     0.1421    60.3302 </r>
       <r>    -6.6643     4.2996    60.7260 </r>
       <r>    -6.5723    10.5518    61.6975 </r>
       <r>    -6.4802     8.8793    62.5149 </r>
       <r>    -6.3882     4.1131    62.8935 </r>
       <r>    -6.2961     4.0079    63.2625 </r>
       <r>    -6.2040     1.8000    63.4282 </r>
       <r>    -6.1120     4.9913    63.8877 </r>
       <r>    -6.0199     4.7137    64.3217 </r>
       <r>    -5.9279     2.9181    64.5903 </r>
       <r>    -5.8358     7.9464    65.3219 </r>
       <r>    -5.7437     7.1615    65.9812 </r>
       <r>    -5.6517     3.4130    66.2954 </r>
       <r>    -5.5596     3.7986    66.6451 </r>
       <r>    -5.4676     1.4674    66.7802 </r>
       <r>    -5.3755     3.1989    67.0746 </r>
       <r>    -5.2834     2.0820    67.2663 </r>
       <r>    -5.1914     1.5286    67.4070 </r>
       <r>    -5.0993     3.2362    67.7050 </r>
       <r>    -5.0073    15.6437    69.1451 </r>
       <r>    -4.9152     6.1323    69.7097 </r>
       <r>    -4.8231     0.0502    69.7143 </r>
       <r>    -4.7311     0.1325    69.7265 </r>
       <r>    -4.6390     2.0775    69.9177 </r>
       <r>    -4.5469     0.4529    69.9594 </r>
       <r>    -4.4549     1.4113    70.0894 </r>
       <r>    -4.3628     3.9760    70.4554 </r>
       <r>    -4.2708     5.0610    70.9213 </r>
       <r>    -4.1787     2.8143    71.1804 </r>
       <r>    -4.0866     0.0354    71.1837 </r>
       <r>    -3.9946     0.0094    71.1845 </r>
       <r>    -3.9025     1.2249    71.2973 </r>
       <r>    -3.8105     1.4100    71.4271 </r>
       <r>    -3.7184     0.0159    71.4286 </r>
       <r>    -3.6263     0.0132    71.4298 </r>
       <r>    -3.5343     2.1938    71.6318 </r>
       <r>    -3.4422     3.0671    71.9141 </r>
       <r>    -3.3502     0.0462    71.9184 </r>
       <r>    -3.2581     0.0000    71.9184 </r>
       <r>    -3.1660     0.0000    71.9184 </r>
       <r>    -3.0740     0.0000    71.9184 </r>
       <r>    -2.9819     0.0000    71.9184 </r>
       <r>    -2.8899     0.0002    71.9184 </r>
       <r>    -2.7978     0.2128    71.9380 </r>
       <r>    -2.7057     1.4085    72.0676 </r>
       <r>    -2.6137     0.1520    72.0816 </r>
       <r>    -2.5216     0.0001    72.0816 </r>
       <r>    -2.4296     0.0000    72.0816 </r>
       <r>    -2.3375     0.0000    72.0816 </r>
       <r>    -2.2454     0.0000    72.0816 </r>
       <r>    -2.1534     0.0001    72.0816 </r>
       <r>    -2.0613     0.2890    72.1082 </r>
       <r>    -1.9693     4.1859    72.4936 </r>
       <r>    -1.8772     0.8445    72.5714 </r>
       <r>    -1.7851     0.0469    72.5757 </r>
       <r>    -1.6931     1.7852    72.7400 </r>
       <r>    -1.6010     0.8263    72.8161 </r>
       <r>    -1.5089     0.0026    72.8163 </r>
       <r>    -1.4169     0.0022    72.8165 </r>
       <r>    -1.3248     1.8819    72.9898 </r>
       <r>    -1.2328    11.5143    74.0498 </r>
       <r>    -1.1407     2.7417    74.3022 </r>
       <r>    -1.0486     3.5102    74.6253 </r>
       <r>    -0.9566     5.8680    75.1656 </r>
       <r>    -0.8645     1.7350    75.3253 </r>
       <r>    -0.7725     4.2885    75.7201 </r>
       <r>    -0.6804     3.3531    76.0288 </r>
       <r>    -0.5883     4.7763    76.4685 </r>
       <r>    -0.4963     2.9744    76.7423 </r>
       <r>    -0.4042     3.7643    77.0888 </r>
       <r>    -0.3122     3.3436    77.3967 </r>
       <r>    -0.2201     5.2186    77.8771 </r>
       <r>    -0.1280     0.8892    77.9590 </r>
       <r>    -0.0360     0.0028    77.9592 </r>
       <r>     0.0561     0.5265    78.0077 </r>
       <r>     0.1481     4.2734    78.4011 </r>
       <r>     0.2402     1.4719    78.5366 </r>
       <r>     0.3323     4.1851    78.9219 </r>
       <r>     0.4243     3.6388    79.2569 </r>
       <r>     0.5164     3.0847    79.5408 </r>
       <r>     0.6084     3.6507    79.8769 </r>
       <r>     0.7005     1.3246    79.9989 </r>
       <r>     0.7926     5.8563    80.5380 </r>
       <r>     0.8846     5.9078    81.0819 </r>
       <r>     0.9767     1.4858    81.2187 </r>
       <r>     1.0687     4.2746    81.6122 </r>
       <r>     1.1608     1.8162    81.7794 </r>
       <r>     1.2529     5.7019    82.3043 </r>
       <r>     1.3449     2.0777    82.4956 </r>
       <r>     1.4370     6.9095    83.1317 </r>
       <r>     1.5291    14.0956    84.4293 </r>
       <r>     1.6211     4.4622    84.8401 </r>
       <r>     1.7132     4.6658    85.2697 </r>
       <r>     1.8052     3.3539    85.5784 </r>
       <r>     1.8973     8.8183    86.3903 </r>
       <r>     1.9894     8.8579    87.2057 </r>
       <r>     2.0814     9.2204    88.0546 </r>
       <r>     2.1735     6.8619    88.6863 </r>
       <r>     2.2655     6.9882    89.3296 </r>
       <r>     2.3576     7.2820    90.0000 </r>
       <r>     2.4497     4.9971    90.4600 </r>
       <r>     2.5417     3.6435    90.7954 </r>
       <r>     2.6338     3.5329    91.1207 </r>
       <r>     2.7258     2.3455    91.3366 </r>
       <r>     2.8179     4.5771    91.7580 </r>
       <r>     2.9100     2.4989    91.9880 </r>
       <r>     3.0020     0.1299    92.0000 </r>
       <r>     3.0941     0.0000    92.0000 </r>
       <r>     3.1861     0.0000    92.0000 </r>
       <r>     3.2782     0.0000    92.0000 </r>
       <r>     3.3703     0.0000    92.0000 </r>
       <r>     3.4623     0.0000    92.0000 </r>
       <r>     3.5544     0.0000    92.0000 </r>
       <r>     3.6464     0.0000    92.0000 </r>
       <r>     3.7385     0.0000    92.0000 </r>
       <r>     3.8306     0.0000    92.0000 </r>
       <r>     3.9226     0.0000    92.0000 </r>
       <r>     4.0147     0.0000    92.0000 </r>
       <r>     4.1067     0.0000    92.0000 </r>
      </set>
     </set>
    </array>
   </total>
  </dos>
 </calculation>
 <structure name="finalpos" >
  <crystal>
   <varray name="basis" >
    <v>       7.40170591       0.00000000       0.00000000 </v>
    <v>      -3.70085295       6.41006527       0.00000000 </v>
    <v>       0.00000000       0.00000000      20.00000000 </v>
   </varray>
   <i name="volume">    948.90835877 </i>
   <varray name="rec_basis" >
    <v>       0.13510399       0.07800233       0.00000000 </v>
    <v>       0.00000000       0.15600465       0.00000000 </v>
    <v>       0.00000000       0.00000000       0.05000000 </v>
   </varray>
  </crystal>
  <varray name="positions" >
   <v>       0.00135104       0.00000000       0.50000000 </v>
   <v>       0.33333333       0.00000000       0.50000000 </v>
   <v>       0.66666667       0.00000000       0.50000000 </v>
   <v>       0.00000000       0.33333333       0.50000000 </v>
   <v>       0.33333333       0.33333333       0.50000000 </v>
   <v>       0.66666667       0.33333333       0.50000000 </v>
   <v>       0.00000000       0.66666667       0.50000000 </v>
   <v>       0.33333333       0.66666667       0.50000000 </v>
   <v>       0.66666667       0.66666667       0.50000000 </v>
   <v>       0.22357326       0.11111111       0.50000000 </v>
   <v>       0.55555556       0.11111111       0.50000000 </v>
   <v>       0.88888889       0.11111111       0.50000000 </v>
   <v>       0.22222222       0.44444444       0.50000000 </v>
   <v>       0.55555556       0.44444444       0.50000000 </v>
   <v>       0.88888889       0.44444444       0.50000000 </v>
   <v>       0.22222222       0.77777778       0.50000000 </v>
   <v>       0.55555556       0.77777778       0.50000000 </v>
   <v>       0.88888889       0.77777778       0.50000000 </v>
  </varray>
 </structure>
</modeling>
