<?xml version="1.0" encoding="ISO-8859-1"?>
<modeling>
 <generator>
  <i name="program" type="string">vasp </i>
  <i name="version" type="string">6.4.1  </i>
  <i name="subversion" type="string">05Apr23 (build Feb 12 2025 00:37:39) complex                          parallel </i>
  <i name="platform" type="string">LinuxIFC </i>
  <i name="date" type="string">2025 02 14 </i>
  <i name="time" type="string">05:30:58 </i>
 </generator>
 <incar>
  <i type="string" name="SYSTEM">SCF</i>
  <i type="int" name="ISTART">     0</i>
  <i type="int" name="ICHARG">     2</i>
  <i type="int" name="NELM">    60</i>
  <i type="int" name="NELMIN">     6</i>
  <i name="EDIFF">      0.00000100</i>
  <i name="EDIFFG">     -0.00000100</i>
  <i name="ENCUT">    600.00000000</i>
  <i type="string" name="LREAL">Auto</i>
  <i type="int" name="ISMEAR">     0</i>
  <i name="SIGMA">      0.05000000</i>
  <i type="logical" name="LWAVE"> F  </i>
  <i type="logical" name="LCHARG"> F  </i>
 </incar>
 <primitive_cell>
  <structure name="primitive_cell" >
   <crystal>
    <varray name="basis" >
     <v>       7.40170591       0.00000000       0.00000000 </v>
     <v>      -3.70085295       6.41006527       0.00000000 </v>
     <v>       0.00000000       0.00000000      20.00000000 </v>
    </varray>
    <i name="volume">    948.90835877 </i>
    <varray name="rec_basis" >
     <v>       0.13510399       0.07800233       0.00000000 </v>
     <v>       0.00000000       0.15600465       0.00000000 </v>
     <v>       0.00000000       0.00000000       0.05000000 </v>
    </varray>
   </crystal>
   <varray name="positions" >
    <v>       0.00078002       0.00156005       0.50000000 </v>
    <v>       0.33468437       0.00000000       0.50000000 </v>
    <v>       0.66666667       0.00000000       0.50000000 </v>
    <v>       1.00000000       0.33333333       0.50000000 </v>
    <v>       0.33333333       0.33333333       0.50000000 </v>
    <v>       0.66666667       0.33333333       0.50000000 </v>
    <v>       1.00000000       0.66666667       0.50000000 </v>
    <v>       0.33333333       0.66666667       0.50000000 </v>
    <v>       0.66666667       0.66666667       0.50000000 </v>
    <v>       0.22222222       0.11111111       0.50000000 </v>
    <v>       0.55555556       0.11111111       0.50000000 </v>
    <v>       0.88888889       0.11111111       0.50000000 </v>
    <v>       0.22222222       0.44444444       0.50000000 </v>
    <v>       0.55555556       0.44444444       0.50000000 </v>
    <v>       0.88888889       0.44444444       0.50000000 </v>
    <v>       0.22222222       0.77777778       0.50000000 </v>
    <v>       0.55555556       0.77777778       0.50000000 </v>
    <v>       0.88888889       0.77777778       0.50000000 </v>
   </varray>
  </structure>
  <varray name="primitive_index" >
   <v type="int" >        1 </v>
   <v type="int" >        2 </v>
   <v type="int" >        3 </v>
   <v type="int" >        4 </v>
   <v type="int" >        5 </v>
   <v type="int" >        6 </v>
   <v type="int" >        7 </v>
   <v type="int" >        8 </v>
   <v type="int" >        9 </v>
   <v type="int" >       10 </v>
   <v type="int" >       11 </v>
   <v type="int" >       12 </v>
   <v type="int" >       13 </v>
   <v type="int" >       14 </v>
   <v type="int" >       15 </v>
   <v type="int" >       16 </v>
   <v type="int" >       17 </v>
   <v type="int" >       18 </v>
  </varray>
 </primitive_cell>
 <kpoints>
  <generation param="Gamma">
   <v type="int" name="divisions">       7        7        1 </v>
   <v name="usershift">      0.00000000       0.00000000       0.00000000 </v>
   <v name="genvec1">      0.14285714       0.00000000       0.00000000 </v>
   <v name="genvec2">      0.00000000       0.14285714       0.00000000 </v>
   <v name="genvec3">      0.00000000       0.00000000       1.00000000 </v>
   <v name="shift">      0.00000000       0.00000000       0.00000000 </v>
  </generation>
  <varray name="kpointlist" >
   <v>       0.00000000       0.00000000       0.00000000 </v>
   <v>       0.14285714       0.00000000       0.00000000 </v>
   <v>       0.00000000       0.14285714       0.00000000 </v>
   <v>      -0.14285714       0.14285714       0.00000000 </v>
   <v>       0.28571429       0.00000000       0.00000000 </v>
   <v>       0.00000000       0.28571429       0.00000000 </v>
   <v>      -0.28571429       0.28571429       0.00000000 </v>
   <v>       0.42857143       0.00000000       0.00000000 </v>
   <v>       0.00000000       0.42857143       0.00000000 </v>
   <v>      -0.42857143       0.42857143       0.00000000 </v>
   <v>       0.14285714       0.14285714       0.00000000 </v>
   <v>      -0.14285714       0.28571429       0.00000000 </v>
   <v>      -0.28571429       0.14285714       0.00000000 </v>
   <v>       0.28571429       0.14285714       0.00000000 </v>
   <v>      -0.14285714       0.42857143       0.00000000 </v>
   <v>      -0.42857143       0.28571429       0.00000000 </v>
   <v>      -0.28571429       0.42857143       0.00000000 </v>
   <v>       0.14285714       0.28571429       0.00000000 </v>
   <v>       0.42857143      -0.14285714       0.00000000 </v>
   <v>       0.42857143       0.14285714       0.00000000 </v>
   <v>      -0.14285714      -0.42857143       0.00000000 </v>
   <v>       0.42857143       0.42857143       0.00000000 </v>
   <v>       0.28571429       0.28571429       0.00000000 </v>
   <v>      -0.28571429      -0.42857143       0.00000000 </v>
   <v>       0.42857143       0.28571429       0.00000000 </v>
  </varray>
  <varray name="weights" >
   <v>       0.02040816 </v>
   <v>       0.04081633 </v>
   <v>       0.04081633 </v>
   <v>       0.04081633 </v>
   <v>       0.04081633 </v>
   <v>       0.04081633 </v>
   <v>       0.04081633 </v>
   <v>       0.04081633 </v>
   <v>       0.04081633 </v>
   <v>       0.04081633 </v>
   <v>       0.04081633 </v>
   <v>       0.04081633 </v>
   <v>       0.04081633 </v>
   <v>       0.04081633 </v>
   <v>       0.04081633 </v>
   <v>       0.04081633 </v>
   <v>       0.04081633 </v>
   <v>       0.04081633 </v>
   <v>       0.04081633 </v>
   <v>       0.04081633 </v>
   <v>       0.04081633 </v>
   <v>       0.04081633 </v>
   <v>       0.04081633 </v>
   <v>       0.04081633 </v>
   <v>       0.04081633 </v>
  </varray>
 </kpoints>
 <parameters>
  <separator name="general" >
   <i type="string" name="SYSTEM">SCF</i>
   <i type="logical" name="LCOMPAT"> F  </i>
  </separator>
  <separator name="electronic" >
   <i type="string" name="PREC">normal</i>
   <i name="ENMAX">    600.00000000</i>
   <i name="ENAUG">    644.87300000</i>
   <i name="EDIFF">      0.00000100</i>
   <i type="int" name="IALGO">    38</i>
   <i type="int" name="IWAVPR">    10</i>
   <i type="int" name="NBANDS">    46</i>
   <i type="int" name="NBANDSLOW">    -1</i>
   <i type="int" name="NBANDSHIGH">    -1</i>
   <i name="NELECT">     72.00000000</i>
   <i type="int" name="TURBO">     0</i>
   <i type="int" name="IRESTART">     0</i>
   <i type="int" name="NREBOOT">     0</i>
   <i type="int" name="NMIN">     0</i>
   <i name="EREF">      0.00000000</i>
   <separator name="electronic smearing" >
    <i type="int" name="ISMEAR">     0</i>
    <i name="SIGMA">      0.05000000</i>
    <i name="KSPACING">      0.50000000</i>
    <i type="logical" name="KGAMMA"> T  </i>
    <i type="logical" name="KBLOWUP"> T  </i>
   </separator>
   <separator name="electronic projectors" >
    <i type="logical" name="LREAL"> T  </i>
    <v name="ROPT">     -0.00050000</v>
    <i type="int" name="LMAXPAW">  -100</i>
    <i type="int" name="LMAXMIX">     2</i>
    <i type="logical" name="NLSPLINE"> F  </i>
   </separator>
   <separator name="electronic startup" >
    <i type="int" name="ISTART">     0</i>
    <i type="int" name="ICHARG">     2</i>
    <i type="int" name="INIWAV">     1</i>
   </separator>
   <separator name="electronic spin" >
    <i type="int" name="ISPIN">     1</i>
    <i type="logical" name="LNONCOLLINEAR"> F  </i>
    <v name="MAGMOM">      1.00000000      1.00000000      1.00000000      1.00000000      1.00000000      1.00000000      1.00000000      1.00000000      1.00000000      1.00000000      1.00000000      1.00000000      1.00000000      1.00000000      1.00000000      1.00000000      1.00000000      1.00000000</v>
    <i name="NUPDOWN">     -1.00000000</i>
    <i type="logical" name="LSORBIT"> F  </i>
    <v name="SAXIS">      0.00000000      0.00000000      1.00000000</v>
    <i type="logical" name="LSPIRAL"> F  </i>
    <v name="QSPIRAL">      0.00000000      0.00000000      0.00000000</v>
    <i type="logical" name="LZEROZ"> F  </i>
   </separator>
   <separator name="electronic exchange-correlation" >
    <i type="logical" name="LASPH"> F  </i>
    <i type="logical" name="LMETAGGA"> F  </i>
   </separator>
   <separator name="electronic convergence" >
    <i type="int" name="NELM">    60</i>
    <i type="int" name="NELMDL">    -5</i>
    <i type="int" name="NELMIN">     6</i>
    <i name="ENINI">    600.00000000</i>
    <separator name="electronic convergence detail" >
     <i type="logical" name="LDIAG"> T  </i>
     <i type="logical" name="LSUBROT"> F  </i>
     <i name="WEIMIN">      0.00000000</i>
     <i name="EBREAK">      0.00000000</i>
     <i name="DEPER">      0.30000000</i>
     <i type="int" name="NRMM">     4</i>
     <i name="TIME">      0.40000000</i>
    </separator>
   </separator>
   <separator name="electronic mixer" >
    <i name="AMIX">      0.40000000</i>
    <i name="BMIX">      1.00000000</i>
    <i name="AMIN">      0.10000000</i>
    <i name="AMIX_MAG">      1.60000000</i>
    <i name="BMIX_MAG">      1.00000000</i>
    <separator name="electronic mixer details" >
     <i type="int" name="IMIX">     4</i>
     <i type="logical" name="MIXFIRST"> F  </i>
     <i type="int" name="MAXMIX">   -45</i>
     <i name="WC">    100.00000000</i>
     <i type="int" name="INIMIX">     1</i>
     <i type="int" name="MIXPRE">     1</i>
     <i type="int" name="MREMOVE">     5</i>
    </separator>
   </separator>
   <separator name="electronic dipolcorrection" >
    <i type="logical" name="LDIPOL"> F  </i>
    <i type="logical" name="LMONO"> F  </i>
    <i type="int" name="IDIPOL">     0</i>
    <i name="EPSILON">      1.00000000</i>
    <v name="DIPOL">   -100.00000000   -100.00000000   -100.00000000</v>
    <i name="EFIELD">      0.00000000</i>
   </separator>
  </separator>
  <separator name="grids" >
   <i type="int" name="NGX">    48</i>
   <i type="int" name="NGY">    48</i>
   <i type="int" name="NGZ">   120</i>
   <i type="int" name="NGXF">    96</i>
   <i type="int" name="NGYF">    96</i>
   <i type="int" name="NGZF">   240</i>
   <i type="logical" name="ADDGRID"> F  </i>
  </separator>
  <separator name="ionic" >
   <i type="int" name="NSW">     0</i>
   <i type="int" name="IBRION">    -1</i>
   <i type="int" name="MDALGO">     0</i>
   <i type="int" name="ISIF">     2</i>
   <i name="PSTRESS">      0.00000000</i>
   <i name="EDIFFG">     -0.00000100</i>
   <i type="int" name="NFREE">     0</i>
   <i name="POTIM">      0.50000000</i>
   <i name="SMASS">     -3.00000000</i>
   <i name="SCALEE">      1.00000000</i>
  </separator>
  <separator name="ionic md" >
   <i name="TEBEG">      0.00010000</i>
   <i name="TEEND">      0.00010000</i>
   <i type="int" name="NBLOCK">     1</i>
   <i type="int" name="KBLOCK">     1</i>
   <i type="int" name="NPACO">   256</i>
   <i name="APACO">     10.00000000</i>
  </separator>
  <separator name="symmetry" >
   <i type="int" name="ISYM">     2</i>
   <i name="SYMPREC">      0.00001000</i>
  </separator>
  <separator name="dos" >
   <i type="int" name="LORBIT">     0</i>
   <v name="RWIGS">     -1.00000000</v>
   <i type="int" name="NEDOS">   301</i>
   <i name="EMIN">     10.00000000</i>
   <i name="EMAX">    -10.00000000</i>
   <i name="EFERMI">      0.00000000</i>
  </separator>
  <separator name="writing" >
   <i type="int" name="NWRITE">     2</i>
   <i type="logical" name="LWAVE"> F  </i>
   <i type="logical" name="LDOWNSAMPLE"> F  </i>
   <i type="logical" name="LCHARG"> F  </i>
   <i type="logical" name="LPARD"> F  </i>
   <i type="logical" name="LVTOT"> F  </i>
   <i type="logical" name="LVHAR"> F  </i>
   <i type="logical" name="LELF"> F  </i>
   <i type="logical" name="LOPTICS"> F  </i>
   <v name="STM">      0.00000000      0.00000000      0.00000000      0.00000000      0.00000000      0.00000000      0.00000000</v>
  </separator>
  <separator name="performance" >
   <i type="int" name="NPAR">     2</i>
   <i type="int" name="NSIM">     4</i>
   <i type="int" name="NBLK">    -1</i>
   <i type="logical" name="LPLANE"> T  </i>
   <i type="logical" name="LSCALAPACK"> T  </i>
   <i type="logical" name="LSCAAWARE"> F  </i>
   <i type="logical" name="LSCALU"> F  </i>
   <i type="logical" name="LASYNC"> F  </i>
   <i type="logical" name="LORBITALREAL"> F  </i>
  </separator>
  <separator name="miscellaneous" >
   <i type="int" name="IDIOT">     3</i>
   <i type="int" name="PHON_NSTRUCT">    -1</i>
   <i type="logical" name="LMUSIC"> F  </i>
   <v name="POMASS">     12.01100000</v>
   <v name="DARWINR">      0.00000000</v>
   <v name="DARWINV">      1.00000000</v>
   <i type="logical" name="LCORR"> T  </i>
  </separator>
  <i type="logical" name="GGA_COMPAT"> T  </i>
  <i type="logical" name="LBERRY"> F  </i>
  <i type="int" name="ICORELEVEL">     0</i>
  <i type="logical" name="LDAU"> F  </i>
  <i type="int" name="I_CONSTRAINED_M">     0</i>
  <separator name="electronic exchange-correlation" >
   <i type="string" name="GGA">--</i>
   <i type="int" name="VOSKOWN">     0</i>
   <i type="logical" name="LHFCALC"> F  </i>
   <i type="string" name="PRECFOCK"></i>
   <i type="logical" name="LSYMGRAD"> F  </i>
   <i type="logical" name="LHFONE"> F  </i>
   <i type="logical" name="LRHFCALC"> F  </i>
   <i type="logical" name="LTHOMAS"> F  </i>
   <i type="logical" name="LMODELHF"> F  </i>
   <i type="logical" name="LFOCKACE"> F  </i>
   <i name="ENCUT4O">     -1.00000000</i>
   <i type="int" name="EXXOEP">     0</i>
   <i type="int" name="FOURORBIT">     0</i>
   <i name="AEXX">      0.00000000</i>
   <i name="HFALPHA">      0.00000000</i>
   <i name="MCALPHA">      0.00000000</i>
   <i name="ALDAX">      1.00000000</i>
   <i name="AGGAX">      1.00000000</i>
   <i name="ALDAC">      1.00000000</i>
   <i name="AGGAC">      1.00000000</i>
   <i type="int" name="NKREDX">     1</i>
   <i type="int" name="NKREDY">     1</i>
   <i type="int" name="NKREDZ">     1</i>
   <i type="logical" name="SHIFTRED"> F  </i>
   <i type="logical" name="ODDONLY"> F  </i>
   <i type="logical" name="EVENONLY"> F  </i>
   <i type="int" name="LMAXFOCK">     0</i>
   <i type="int" name="NMAXFOCKAE">     0</i>
   <i type="logical" name="LFOCKAEDFT"> F  </i>
   <i name="HFSCREEN">      0.00000000</i>
   <i name="HFSCREENC">      0.00000000</i>
   <i type="int" name="NBANDSGWLOW">     0</i>
  </separator>
  <separator name="vdW DFT" >
   <i type="logical" name="LUSE_VDW"> F  </i>
   <i type="int" name="IVDW_NL">     1</i>
   <i type="logical" name="LSPIN_VDW"> F  </i>
   <i name="Zab_VDW">     -0.84910000</i>
   <i name="PARAM1">      0.12340000</i>
   <i name="PARAM2">      1.00000000</i>
   <i name="PARAM3">      0.00000000</i>
  </separator>
  <separator name="model GW" >
   <i type="int" name="MODEL_GW">     0</i>
   <i name="MODEL_EPS0">     31.63027863</i>
   <i name="MODEL_ALPHA">      1.00000000</i>
  </separator>
  <separator name="linear response parameters" >
   <i type="logical" name="LEPSILON"> F  </i>
   <i type="logical" name="LRPA"> F  </i>
   <i type="logical" name="LNABLA"> F  </i>
   <i type="logical" name="LVEL"> F  </i>
   <i name="CSHIFT">      0.10000000</i>
   <i name="OMEGAMAX">     -1.00000000</i>
   <i name="DEG_THRESHOLD">      0.00200000</i>
   <i name="RTIME">     -0.10000000</i>
   <i name="WPLASMAI">      0.00000000</i>
   <v name="DFIELD">      0.00000000      0.00000000      0.00000000</v>
   <v name="WPLASMA">      0.00000000      0.00000000      0.00000000      0.00000000      0.00000000      0.00000000      0.00000000      0.00000000      0.00000000</v>
  </separator>
  <separator name="orbital magnetization" >
   <i type="logical" name="NUCIND"> F  </i>
   <v name="MAGPOS">      0.00000000      0.00000000      0.00000000</v>
   <i type="logical" name="LNICSALL"> T  </i>
   <i type="logical" name="ORBITALMAG"> F  </i>
   <i type="logical" name="LMAGBLOCH"> F  </i>
   <i type="logical" name="LCHIMAG"> F  </i>
   <i type="logical" name="LGAUGE"> T  </i>
   <i type="int" name="MAGATOM">     0</i>
   <v name="MAGDIPOL">      0.00000000      0.00000000      0.00000000</v>
   <v name="AVECCONST">      0.00000000      0.00000000      0.00000000</v>
  </separator>
  <separator name="response functions" >
   <i type="logical" name="LALL_IN_ONE"> F  </i>
   <i type="int" name="IALL_IN_ONE">    -1</i>
   <i type="int" name="NBANDS_WAVE">    -1</i>
   <i type="logical" name="LFINITE_TEMPERATURE"> F  </i>
   <i type="logical" name="LADDER"> F  </i>
   <i type="logical" name="LRPAFORCE"> F  </i>
   <i type="logical" name="LFXC"> F  </i>
   <i type="logical" name="LHARTREE"> T  </i>
   <i type="int" name="IBSE">     0</i>
   <v type="int" name="KPOINT">    -1     0     0     0</v>
   <i type="logical" name="LTCTC"> F  </i>
   <i type="logical" name="LTCTE"> F  </i>
   <i type="logical" name="LTETE"> F  </i>
   <i type="logical" name="LTRIPLET"> F  </i>
   <i type="logical" name="LFXCEPS"> F  </i>
   <i type="logical" name="LFXHEG"> F  </i>
   <i type="int" name="NATURALO">     2</i>
   <i type="logical" name="LHOLEGF"> F  </i>
   <i type="logical" name="L2ORDER"> F  </i>
   <i type="logical" name="LDMP1"> F  </i>
   <i type="logical" name="LMP2LT"> F  </i>
   <i type="logical" name="LSMP2LT"> F  </i>
   <i type="logical" name="LGWLF"> F  </i>
   <i name="ENCUTGW">     -1.60000002</i>
   <i name="ENCUTGWSOFT">     -1.60000002</i>
   <i name="ENCUTLF">     -1.00000000</i>
   <i type="logical" name="LESF_SPLINES"> F  </i>
   <i type="int" name="LMAXMP2">    -1</i>
   <i name="SCISSOR">      0.00000000</i>
   <i type="int" name="NOMEGA">     0</i>
   <i type="int" name="NOMEGAR">     0</i>
   <i type="int" name="NBANDSGW">    -1</i>
   <i type="int" name="NBANDSO">    -1</i>
   <i type="int" name="NBANDSV">    -1</i>
   <i type="int" name="NELMGW">     1</i>
   <i type="int" name="NELMHF">     1</i>
   <i type="int" name="DIM">     3</i>
   <i type="int" name="IESPILON">     4</i>
   <i type="int" name="ANTIRES">     0</i>
   <i name="OMEGAMAX">    -30.00000000</i>
   <i name="OMEGAMIN">    -30.00000000</i>
   <i name="OMEGATL">   -200.00000000</i>
   <i type="int" name="OMEGAGRID">     0</i>
   <i name="CSHIFT">     -0.10000000</i>
   <i type="logical" name="LSELFENERGY"> F  </i>
   <i type="logical" name="LSPECTRAL"> F  </i>
   <i type="logical" name="LSPECTRALGW"> F  </i>
   <i type="logical" name="LSINGLES"> F  </i>
   <i type="logical" name="LFERMIGW"> F  </i>
   <i type="logical" name="ODDONLYGW"> F  </i>
   <i type="logical" name="EVENONLYGW"> F  </i>
   <i type="int" name="NKREDLFX">     1</i>
   <i type="int" name="NKREDLFY">     1</i>
   <i type="int" name="NKREDLFZ">     1</i>
   <i type="int" name="MAXMEM">  2800</i>
   <i type="int" name="TELESCOPE">     0</i>
   <i type="int" name="NTAUPAR">    -1</i>
   <i type="int" name="NOMEGAPAR">    -1</i>
   <i name="DAMP_NEWTON">      0.80000001</i>
   <i name="LAMBDA">      1.00000000</i>
  </separator>
  <separator name="External order field" >
   <i name="OFIELD_KAPPA">      0.00000000</i>
   <v name="OFIELD_K">      0.00000000      0.00000000      0.00000000</v>
   <i name="OFIELD_Q6_NEAR">      0.00000000</i>
   <i name="OFIELD_Q6_FAR">      0.00000000</i>
   <i name="OFIELD_A">      0.00000000</i>
  </separator>
  <separator name="optional k-points parameters" >
   <i type="int" name="KPOINTS_OPT_MODE">     1</i>
   <i type="logical" name="LKPOINTS_OPT"> F  </i>
  </separator>
 </parameters>
 <atominfo>
  <atoms>      18 </atoms>
  <types>       1 </types>
  <array name="atoms" >
   <dimension dim="1">ion</dimension>
   <field type="string">element</field>
   <field type="int">atomtype</field>
   <set>
    <rc><c>C </c><c>   1</c></rc>
    <rc><c>C </c><c>   1</c></rc>
    <rc><c>C </c><c>   1</c></rc>
    <rc><c>C </c><c>   1</c></rc>
    <rc><c>C </c><c>   1</c></rc>
    <rc><c>C </c><c>   1</c></rc>
    <rc><c>C </c><c>   1</c></rc>
    <rc><c>C </c><c>   1</c></rc>
    <rc><c>C </c><c>   1</c></rc>
    <rc><c>C </c><c>   1</c></rc>
    <rc><c>C </c><c>   1</c></rc>
    <rc><c>C </c><c>   1</c></rc>
    <rc><c>C </c><c>   1</c></rc>
    <rc><c>C </c><c>   1</c></rc>
    <rc><c>C </c><c>   1</c></rc>
    <rc><c>C </c><c>   1</c></rc>
    <rc><c>C </c><c>   1</c></rc>
    <rc><c>C </c><c>   1</c></rc>
   </set>
  </array>
  <array name="atomtypes" >
   <dimension dim="1">type</dimension>
   <field type="int">atomspertype</field>
   <field type="string">element</field>
   <field>mass</field>
   <field>valence</field>
   <field type="string">pseudopotential</field>
   <set>
    <rc><c>  18</c><c>C </c><c>     12.01100000</c><c>      4.00000000</c><c>  PAW_PBE C 08Apr2002                   </c></rc>
   </set>
  </array>
 </atominfo>
 <structure name="initialpos" >
  <crystal>
   <varray name="basis" >
    <v>       7.40170591       0.00000000       0.00000000 </v>
    <v>      -3.70085295       6.41006527       0.00000000 </v>
    <v>       0.00000000       0.00000000      20.00000000 </v>
   </varray>
   <i name="volume">    948.90835877 </i>
   <varray name="rec_basis" >
    <v>       0.13510399       0.07800233       0.00000000 </v>
    <v>       0.00000000       0.15600465       0.00000000 </v>
    <v>       0.00000000       0.00000000       0.05000000 </v>
   </varray>
  </crystal>
  <varray name="positions" >
   <v>       0.00078002       0.00156005       0.50000000 </v>
   <v>       0.33468437       0.00000000       0.50000000 </v>
   <v>       0.66666667       0.00000000       0.50000000 </v>
   <v>       0.00000000       0.33333333       0.50000000 </v>
   <v>       0.33333333       0.33333333       0.50000000 </v>
   <v>       0.66666667       0.33333333       0.50000000 </v>
   <v>       0.00000000       0.66666667       0.50000000 </v>
   <v>       0.33333333       0.66666667       0.50000000 </v>
   <v>       0.66666667       0.66666667       0.50000000 </v>
   <v>       0.22222222       0.11111111       0.50000000 </v>
   <v>       0.55555556       0.11111111       0.50000000 </v>
   <v>       0.88888889       0.11111111       0.50000000 </v>
   <v>       0.22222222       0.44444444       0.50000000 </v>
   <v>       0.55555556       0.44444444       0.50000000 </v>
   <v>       0.88888889       0.44444444       0.50000000 </v>
   <v>       0.22222222       0.77777778       0.50000000 </v>
   <v>       0.55555556       0.77777778       0.50000000 </v>
   <v>       0.88888889       0.77777778       0.50000000 </v>
  </varray>
 </structure>
 <calculation>
  <scstep>
   <time name="dav">    5.93    4.96</time>
   <time name="total">    6.02    5.05</time>
   <energy>
    <i name="alphaZ">     28.04858418 </i>
    <i name="ewald">  11638.87677242 </i>
    <i name="hartreedc"> -13553.18236470 </i>
    <i name="XCdc">    237.17775437 </i>
    <i name="pawpsdc">   1953.39683484 </i>
    <i name="pawaedc">  -1963.64613940 </i>
    <i name="eentropy">     -0.00844117 </i>
    <i name="bandstr">   -257.78549586 </i>
    <i name="atom">   2648.70517965 </i>
    <i name="e_fr_energy">    731.58268432 </i>
    <i name="e_wo_entrp">    731.59112550 </i>
    <i name="e_0_energy">    731.58690491 </i>
   </energy>
  </scstep>
  <scstep>
   <time name="dav">    7.86    8.16</time>
   <time name="total">    7.86    8.16</time>
   <energy>
    <i name="e_fr_energy">    -23.90184661 </i>
    <i name="e_wo_entrp">    -23.90139082 </i>
    <i name="e_0_energy">    -23.90161872 </i>
   </energy>
  </scstep>
  <scstep>
   <time name="dav">    6.37    6.61</time>
   <time name="total">    6.37    6.61</time>
   <energy>
    <i name="e_fr_energy">   -172.27837543 </i>
    <i name="e_wo_entrp">   -172.27752764 </i>
    <i name="e_0_energy">   -172.27795153 </i>
   </energy>
  </scstep>
  <scstep>
   <time name="dav">    6.27    6.52</time>
   <time name="total">    6.28    6.52</time>
   <energy>
    <i name="e_fr_energy">   -177.34687837 </i>
    <i name="e_wo_entrp">   -177.34496713 </i>
    <i name="e_0_energy">   -177.34592275 </i>
   </energy>
  </scstep>
  <scstep>
   <time name="dav">    7.12    7.39</time>
   <time name="total">    7.39    7.67</time>
   <energy>
    <i name="e_fr_energy">   -177.48424128 </i>
    <i name="e_wo_entrp">   -177.48227963 </i>
    <i name="e_0_energy">   -177.48326046 </i>
   </energy>
  </scstep>
  <scstep>
   <time name="dav">    5.99    5.02</time>
   <time name="total">    6.35    5.39</time>
   <energy>
    <i name="e_fr_energy">   -169.31636533 </i>
    <i name="e_wo_entrp">   -169.31435123 </i>
    <i name="e_0_energy">   -169.31535828 </i>
   </energy>
  </scstep>
  <scstep>
   <time name="dav">    5.88    6.10</time>
   <time name="total">    6.22    6.46</time>
   <energy>
    <i name="e_fr_energy">   -166.14873222 </i>
    <i name="e_wo_entrp">   -166.14667516 </i>
    <i name="e_0_energy">   -166.14770369 </i>
   </energy>
  </scstep>
  <scstep>
   <time name="dav">    6.21    6.46</time>
   <time name="total">    6.56    6.83</time>
   <energy>
    <i name="e_fr_energy">   -166.08567593 </i>
    <i name="e_wo_entrp">   -166.08363308 </i>
    <i name="e_0_energy">   -166.08465451 </i>
   </energy>
  </scstep>
  <scstep>
   <time name="dav">    6.64    6.93</time>
   <time name="total">    6.99    7.29</time>
   <energy>
    <i name="e_fr_energy">   -166.07280304 </i>
    <i name="e_wo_entrp">   -166.07075721 </i>
    <i name="e_0_energy">   -166.07178012 </i>
   </energy>
  </scstep>
  <scstep>
   <time name="dav">    5.75    5.97</time>
   <time name="total">    6.11    5.13</time>
   <energy>
    <i name="e_fr_energy">   -166.05423199 </i>
    <i name="e_wo_entrp">   -166.05218332 </i>
    <i name="e_0_energy">   -166.05320766 </i>
   </energy>
  </scstep>
  <scstep>
   <time name="dav">    5.84    6.06</time>
   <time name="total">    6.20    6.43</time>
   <energy>
    <i name="e_fr_energy">   -166.05752633 </i>
    <i name="e_wo_entrp">   -166.05547856 </i>
    <i name="e_0_energy">   -166.05650245 </i>
   </energy>
  </scstep>
  <scstep>
   <time name="dav">    5.87    6.09</time>
   <time name="total">    6.21    6.45</time>
   <energy>
    <i name="e_fr_energy">   -166.06225536 </i>
    <i name="e_wo_entrp">   -166.06020863 </i>
    <i name="e_0_energy">   -166.06123199 </i>
   </energy>
  </scstep>
  <scstep>
   <time name="dav">    5.65    5.87</time>
   <time name="total">    6.00    6.23</time>
   <energy>
    <i name="e_fr_energy">   -166.06642714 </i>
    <i name="e_wo_entrp">   -166.06437992 </i>
    <i name="e_0_energy">   -166.06540353 </i>
   </energy>
  </scstep>
  <scstep>
   <time name="dav">    5.66    5.88</time>
   <time name="total">    6.01    6.24</time>
   <energy>
    <i name="e_fr_energy">   -166.07019006 </i>
    <i name="e_wo_entrp">   -166.06814243 </i>
    <i name="e_0_energy">   -166.06916625 </i>
   </energy>
  </scstep>
  <scstep>
   <time name="dav">    5.85    6.07</time>
   <time name="total">    6.20    6.43</time>
   <energy>
    <i name="e_fr_energy">   -166.07161891 </i>
    <i name="e_wo_entrp">   -166.06957139 </i>
    <i name="e_0_energy">   -166.07059515 </i>
   </energy>
  </scstep>
  <scstep>
   <time name="dav">    5.97    4.99</time>
   <time name="total">    6.32    5.36</time>
   <energy>
    <i name="e_fr_energy">   -166.07176675 </i>
    <i name="e_wo_entrp">   -166.06971929 </i>
    <i name="e_0_energy">   -166.07074302 </i>
   </energy>
  </scstep>
  <scstep>
   <time name="dav">    5.65    5.87</time>
   <time name="total">    6.01    6.24</time>
   <energy>
    <i name="e_fr_energy">   -166.07198775 </i>
    <i name="e_wo_entrp">   -166.06994038 </i>
    <i name="e_0_energy">   -166.07096407 </i>
   </energy>
  </scstep>
  <scstep>
   <time name="dav">    5.07    5.26</time>
   <time name="total">    5.42    5.62</time>
   <energy>
    <i name="e_fr_energy">   -166.07203187 </i>
    <i name="e_wo_entrp">   -166.06998446 </i>
    <i name="e_0_energy">   -166.07100816 </i>
   </energy>
  </scstep>
  <scstep>
   <time name="dav">    4.97    5.16</time>
   <time name="total">    5.32    5.52</time>
   <energy>
    <i name="e_fr_energy">   -166.07207248 </i>
    <i name="e_wo_entrp">   -166.07002500 </i>
    <i name="e_0_energy">   -166.07104874 </i>
   </energy>
  </scstep>
  <scstep>
   <time name="dav">    4.14    4.30</time>
   <time name="total">    4.49    4.66</time>
   <energy>
    <i name="e_fr_energy">   -166.07209380 </i>
    <i name="e_wo_entrp">   -166.07004636 </i>
    <i name="e_0_energy">   -166.07107008 </i>
   </energy>
  </scstep>
  <scstep>
   <time name="dav">    3.95    4.10</time>
   <time name="total">    4.31    4.47</time>
   <energy>
    <i name="e_fr_energy">   -166.07210238 </i>
    <i name="e_wo_entrp">   -166.07005494 </i>
    <i name="e_0_energy">   -166.07107866 </i>
   </energy>
  </scstep>
  <scstep>
   <time name="dav">    3.85    4.00</time>
   <time name="total">    4.21    3.18</time>
   <energy>
    <i name="e_fr_energy">   -166.07210565 </i>
    <i name="e_wo_entrp">   -166.07005822 </i>
    <i name="e_0_energy">   -166.07108193 </i>
   </energy>
  </scstep>
  <scstep>
   <time name="dav">    3.89    4.04</time>
   <time name="total">    3.97    4.12</time>
   <energy>
    <i name="alphaZ">     28.04858418 </i>
    <i name="ewald">  11638.87677242 </i>
    <i name="hartreedc"> -13861.52603873 </i>
    <i name="XCdc">    247.81453457 </i>
    <i name="pawpsdc">   7452.98653311 </i>
    <i name="pawaedc">  -7465.24997748 </i>
    <i name="eentropy">     -0.00204743 </i>
    <i name="bandstr">   -855.72564634 </i>
    <i name="atom">   2648.70517965 </i>
    <i name="e_fr_energy">   -166.07210606 </i>
    <i name="e_wo_entrp">   -166.07005862 </i>
    <i name="e_0_energy">   -166.07108234 </i>
   </energy>
  </scstep>
  <structure>
   <crystal>
    <varray name="basis" >
     <v>       7.40170591       0.00000000       0.00000000 </v>
     <v>      -3.70085295       6.41006527       0.00000000 </v>
     <v>       0.00000000       0.00000000      20.00000000 </v>
    </varray>
    <i name="volume">    948.90835877 </i>
    <varray name="rec_basis" >
     <v>       0.13510399       0.07800233       0.00000000 </v>
     <v>       0.00000000       0.15600465       0.00000000 </v>
     <v>       0.00000000       0.00000000       0.05000000 </v>
    </varray>
   </crystal>
   <varray name="positions" >
    <v>       0.00078002       0.00156005       0.50000000 </v>
    <v>       0.33468437       0.00000000       0.50000000 </v>
    <v>       0.66666667       0.00000000       0.50000000 </v>
    <v>       0.00000000       0.33333333       0.50000000 </v>
    <v>       0.33333333       0.33333333       0.50000000 </v>
    <v>       0.66666667       0.33333333       0.50000000 </v>
    <v>       0.00000000       0.66666667       0.50000000 </v>
    <v>       0.33333333       0.66666667       0.50000000 </v>
    <v>       0.66666667       0.66666667       0.50000000 </v>
    <v>       0.22222222       0.11111111       0.50000000 </v>
    <v>       0.55555556       0.11111111       0.50000000 </v>
    <v>       0.88888889       0.11111111       0.50000000 </v>
    <v>       0.22222222       0.44444444       0.50000000 </v>
    <v>       0.55555556       0.44444444       0.50000000 </v>
    <v>       0.88888889       0.44444444       0.50000000 </v>
    <v>       0.22222222       0.77777778       0.50000000 </v>
    <v>       0.55555556       0.77777778       0.50000000 </v>
    <v>       0.88888889       0.77777778       0.50000000 </v>
   </varray>
  </structure>
  <varray name="forces" >
   <v>       0.04970792      -0.57810711      -0.00000000 </v>
   <v>      -0.58519508      -0.03212169      -0.00000000 </v>
   <v>       0.03739147      -0.03797707       0.00000000 </v>
   <v>       0.01024988       0.03128079      -0.00000000 </v>
   <v>       0.01299238      -0.01358724       0.00000000 </v>
   <v>      -0.00598422       0.07497637       0.00000000 </v>
   <v>      -0.05086377       0.05000805      -0.00000000 </v>
   <v>      -0.00635091       0.01048179       0.00000000 </v>
   <v>       0.07447039       0.03099078       0.00000000 </v>
   <v>       0.25475691       0.08854832      -0.00000000 </v>
   <v>       0.20870094       0.03496822       0.00000000 </v>
   <v>      -0.05819870       0.14043251       0.00000000 </v>
   <v>      -0.01808930      -0.04072967       0.00000000 </v>
   <v>       0.03182855      -0.00658678       0.00000000 </v>
   <v>      -0.02849143       0.00338218       0.00000000 </v>
   <v>       0.13061964       0.00871780      -0.00000000 </v>
   <v>      -0.03987931       0.03145487       0.00000000 </v>
   <v>      -0.01766538       0.20386787       0.00000000 </v>
  </varray>
  <varray name="stress" >
   <v>      -0.06324911       0.07608985       0.00000000 </v>
   <v>       0.07608986      -0.21894314       0.00000000 </v>
   <v>       0.00000000       0.00000000      -0.56277320 </v>
  </varray>
  <energy>
   <i name="e_fr_energy">   -166.07210606 </i>
   <i name="e_wo_entrp">   -166.07005862 </i>
   <i name="e_0_energy">   -166.07108234 </i>
  </energy>
  <time name="totalsc">  141.97  141.42</time>
  <eigenvalues>
   <array>
    <dimension dim="1">band</dimension>
    <dimension dim="2">kpoint</dimension>
    <dimension dim="3">spin</dimension>
    <field>eigene</field>
    <field>occ</field>
    <set>
     <set comment="spin 1">
      <set comment="kpoint 1">
       <r>  -22.2560    1.0000 </r>
       <r>  -19.6987    1.0000 </r>
       <r>  -19.6841    1.0000 </r>
       <r>  -19.6751    1.0000 </r>
       <r>  -19.6724    1.0000 </r>
       <r>  -19.6632    1.0000 </r>
       <r>  -19.6470    1.0000 </r>
       <r>  -15.3586    1.0000 </r>
       <r>  -15.3464    1.0000 </r>
       <r>  -15.3386    1.0000 </r>
       <r>  -15.3197    1.0000 </r>
       <r>  -13.2944    1.0000 </r>
       <r>  -13.2853    1.0000 </r>
       <r>  -12.4093    1.0000 </r>
       <r>  -12.3882    1.0000 </r>
       <r>  -12.3782    1.0000 </r>
       <r>  -12.3652    1.0000 </r>
       <r>  -12.3646    1.0000 </r>
       <r>  -12.3418    1.0000 </r>
       <r>  -10.3599    1.0000 </r>
       <r>   -8.5571    1.0000 </r>
       <r>   -8.5403    1.0000 </r>
       <r>   -8.5275    1.0000 </r>
       <r>   -8.5190    1.0000 </r>
       <r>   -8.5071    1.0000 </r>
       <r>   -8.4899    1.0000 </r>
       <r>   -7.3904    1.0000 </r>
       <r>   -7.3824    1.0000 </r>
       <r>   -7.3715    1.0000 </r>
       <r>   -7.3705    1.0000 </r>
       <r>   -7.3602    1.0000 </r>
       <r>   -7.3507    1.0000 </r>
       <r>   -5.8072    1.0000 </r>
       <r>   -5.7609    1.0000 </r>
       <r>   -2.7794    0.7524 </r>
       <r>   -2.7596    0.5480 </r>
       <r>   -2.7519    0.4615 </r>
       <r>   -2.7301    0.2381 </r>
       <r>    0.5197    0.0000 </r>
       <r>    1.3120    0.0000 </r>
       <r>    1.6359    0.0000 </r>
       <r>    2.1167    0.0000 </r>
       <r>    2.1316    0.0000 </r>
       <r>    2.1448    0.0000 </r>
       <r>    2.1542    0.0000 </r>
       <r>    2.1719    0.0000 </r>
      </set>
      <set comment="kpoint 2">
       <r>  -22.2025    1.0000 </r>
       <r>  -20.3497    1.0000 </r>
       <r>  -19.9925    1.0000 </r>
       <r>  -19.9756    1.0000 </r>
       <r>  -19.2708    1.0000 </r>
       <r>  -19.2540    1.0000 </r>
       <r>  -18.9062    1.0000 </r>
       <r>  -16.0015    1.0000 </r>
       <r>  -15.9905    1.0000 </r>
       <r>  -14.9153    1.0000 </r>
       <r>  -14.9088    1.0000 </r>
       <r>  -13.6054    1.0000 </r>
       <r>  -12.9767    1.0000 </r>
       <r>  -12.9692    1.0000 </r>
       <r>  -12.9562    1.0000 </r>
       <r>  -12.9452    1.0000 </r>
       <r>  -11.7390    1.0000 </r>
       <r>  -11.7209    1.0000 </r>
       <r>  -11.1266    1.0000 </r>
       <r>  -10.2960    1.0000 </r>
       <r>   -8.8738    1.0000 </r>
       <r>   -8.8670    1.0000 </r>
       <r>   -8.8158    1.0000 </r>
       <r>   -8.5224    1.0000 </r>
       <r>   -8.5098    1.0000 </r>
       <r>   -8.1256    1.0000 </r>
       <r>   -8.1183    1.0000 </r>
       <r>   -7.7216    1.0000 </r>
       <r>   -7.7082    1.0000 </r>
       <r>   -6.9304    1.0000 </r>
       <r>   -6.9178    1.0000 </r>
       <r>   -6.5526    1.0000 </r>
       <r>   -6.0259    1.0000 </r>
       <r>   -5.8778    1.0000 </r>
       <r>   -3.5303    1.0000 </r>
       <r>   -3.5240    1.0000 </r>
       <r>   -2.0071    0.0000 </r>
       <r>   -2.0008    0.0000 </r>
       <r>    0.5923    0.0000 </r>
       <r>    0.8644    0.0000 </r>
       <r>    1.3856    0.0000 </r>
       <r>    1.4686    0.0000 </r>
       <r>    1.4862    0.0000 </r>
       <r>    1.7104    0.0000 </r>
       <r>    2.6298    0.0000 </r>
       <r>    2.7569    0.0000 </r>
      </set>
      <set comment="kpoint 3">
       <r>  -22.2024    1.0000 </r>
       <r>  -20.3491    1.0000 </r>
       <r>  -19.9916    1.0000 </r>
       <r>  -19.9775    1.0000 </r>
       <r>  -19.2692    1.0000 </r>
       <r>  -19.2559    1.0000 </r>
       <r>  -18.9057    1.0000 </r>
       <r>  -15.9999    1.0000 </r>
       <r>  -15.9903    1.0000 </r>
       <r>  -14.9220    1.0000 </r>
       <r>  -14.9061    1.0000 </r>
       <r>  -13.5925    1.0000 </r>
       <r>  -12.9849    1.0000 </r>
       <r>  -12.9700    1.0000 </r>
       <r>  -12.9558    1.0000 </r>
       <r>  -12.9464    1.0000 </r>
       <r>  -11.7490    1.0000 </r>
       <r>  -11.7290    1.0000 </r>
       <r>  -11.1102    1.0000 </r>
       <r>  -10.2960    1.0000 </r>
       <r>   -8.8720    1.0000 </r>
       <r>   -8.8547    1.0000 </r>
       <r>   -8.8317    1.0000 </r>
       <r>   -8.5148    1.0000 </r>
       <r>   -8.4930    1.0000 </r>
       <r>   -8.1402    1.0000 </r>
       <r>   -8.1285    1.0000 </r>
       <r>   -7.7180    1.0000 </r>
       <r>   -7.7070    1.0000 </r>
       <r>   -6.9272    1.0000 </r>
       <r>   -6.9165    1.0000 </r>
       <r>   -6.5600    1.0000 </r>
       <r>   -5.9918    1.0000 </r>
       <r>   -5.9123    1.0000 </r>
       <r>   -3.5331    1.0000 </r>
       <r>   -3.5198    1.0000 </r>
       <r>   -2.0129    0.0000 </r>
       <r>   -1.9966    0.0000 </r>
       <r>    0.5923    0.0000 </r>
       <r>    0.8826    0.0000 </r>
       <r>    1.3856    0.0000 </r>
       <r>    1.4621    0.0000 </r>
       <r>    1.4809    0.0000 </r>
       <r>    1.7104    0.0000 </r>
       <r>    2.6298    0.0000 </r>
       <r>    2.7495    0.0000 </r>
      </set>
      <set comment="kpoint 4">
       <r>  -22.2024    1.0000 </r>
       <r>  -20.3492    1.0000 </r>
       <r>  -19.9891    1.0000 </r>
       <r>  -19.9798    1.0000 </r>
       <r>  -19.2667    1.0000 </r>
       <r>  -19.2582    1.0000 </r>
       <r>  -18.9058    1.0000 </r>
       <r>  -15.9992    1.0000 </r>
       <r>  -15.9914    1.0000 </r>
       <r>  -14.9242    1.0000 </r>
       <r>  -14.9030    1.0000 </r>
       <r>  -13.5958    1.0000 </r>
       <r>  -12.9843    1.0000 </r>
       <r>  -12.9677    1.0000 </r>
       <r>  -12.9579    1.0000 </r>
       <r>  -12.9447    1.0000 </r>
       <r>  -11.7477    1.0000 </r>
       <r>  -11.7252    1.0000 </r>
       <r>  -11.1147    1.0000 </r>
       <r>  -10.2960    1.0000 </r>
       <r>   -8.8750    1.0000 </r>
       <r>   -8.8545    1.0000 </r>
       <r>   -8.8283    1.0000 </r>
       <r>   -8.5206    1.0000 </r>
       <r>   -8.4938    1.0000 </r>
       <r>   -8.1343    1.0000 </r>
       <r>   -8.1277    1.0000 </r>
       <r>   -7.7167    1.0000 </r>
       <r>   -7.7097    1.0000 </r>
       <r>   -6.9266    1.0000 </r>
       <r>   -6.9183    1.0000 </r>
       <r>   -6.5580    1.0000 </r>
       <r>   -6.0035    1.0000 </r>
       <r>   -5.9005    1.0000 </r>
       <r>   -3.5354    1.0000 </r>
       <r>   -3.5178    1.0000 </r>
       <r>   -2.0157    0.0000 </r>
       <r>   -1.9935    0.0000 </r>
       <r>    0.5923    0.0000 </r>
       <r>    0.8778    0.0000 </r>
       <r>    1.3856    0.0000 </r>
       <r>    1.4632    0.0000 </r>
       <r>    1.4828    0.0000 </r>
       <r>    1.7104    0.0000 </r>
       <r>    2.6298    0.0000 </r>
       <r>    2.7531    0.0000 </r>
      </set>
      <set comment="kpoint 5">
       <r>  -22.0420    1.0000 </r>
       <r>  -20.9270    1.0000 </r>
       <r>  -20.2010    1.0000 </r>
       <r>  -20.1840    1.0000 </r>
       <r>  -18.7637    1.0000 </r>
       <r>  -18.7472    1.0000 </r>
       <r>  -18.0627    1.0000 </r>
       <r>  -16.7528    1.0000 </r>
       <r>  -16.7387    1.0000 </r>
       <r>  -14.7613    1.0000 </r>
       <r>  -14.6269    1.0000 </r>
       <r>  -14.6174    1.0000 </r>
       <r>  -13.5033    1.0000 </r>
       <r>  -13.4894    1.0000 </r>
       <r>  -12.1915    1.0000 </r>
       <r>  -12.1796    1.0000 </r>
       <r>  -11.1002    1.0000 </r>
       <r>  -11.0806    1.0000 </r>
       <r>  -10.1046    1.0000 </r>
       <r>   -9.8716    1.0000 </r>
       <r>   -9.5023    1.0000 </r>
       <r>   -9.4964    1.0000 </r>
       <r>   -9.0277    1.0000 </r>
       <r>   -8.7908    1.0000 </r>
       <r>   -8.7771    1.0000 </r>
       <r>   -8.7630    1.0000 </r>
       <r>   -7.9530    1.0000 </r>
       <r>   -7.9393    1.0000 </r>
       <r>   -7.6571    1.0000 </r>
       <r>   -6.6410    1.0000 </r>
       <r>   -6.3847    1.0000 </r>
       <r>   -6.3729    1.0000 </r>
       <r>   -6.1964    1.0000 </r>
       <r>   -5.7581    1.0000 </r>
       <r>   -4.3037    1.0000 </r>
       <r>   -4.2956    1.0000 </r>
       <r>   -1.2861    0.0000 </r>
       <r>   -1.2774    0.0000 </r>
       <r>   -0.2511    0.0000 </r>
       <r>    0.7828    0.0000 </r>
       <r>    0.7986    0.0000 </r>
       <r>    0.8103    0.0000 </r>
       <r>    1.6064    0.0000 </r>
       <r>    1.9338    0.0000 </r>
       <r>    2.3341    0.0000 </r>
       <r>    2.8511    0.0000 </r>
      </set>
      <set comment="kpoint 6">
       <r>  -22.0419    1.0000 </r>
       <r>  -20.9266    1.0000 </r>
       <r>  -20.2000    1.0000 </r>
       <r>  -20.1860    1.0000 </r>
       <r>  -18.7620    1.0000 </r>
       <r>  -18.7488    1.0000 </r>
       <r>  -18.0632    1.0000 </r>
       <r>  -16.7501    1.0000 </r>
       <r>  -16.7396    1.0000 </r>
       <r>  -14.7487    1.0000 </r>
       <r>  -14.6341    1.0000 </r>
       <r>  -14.6168    1.0000 </r>
       <r>  -13.5101    1.0000 </r>
       <r>  -13.4930    1.0000 </r>
       <r>  -12.1903    1.0000 </r>
       <r>  -12.1752    1.0000 </r>
       <r>  -11.1144    1.0000 </r>
       <r>  -11.0929    1.0000 </r>
       <r>  -10.1048    1.0000 </r>
       <r>   -9.8521    1.0000 </r>
       <r>   -9.4999    1.0000 </r>
       <r>   -9.4848    1.0000 </r>
       <r>   -9.0455    1.0000 </r>
       <r>   -8.7926    1.0000 </r>
       <r>   -8.7646    1.0000 </r>
       <r>   -8.7434    1.0000 </r>
       <r>   -7.9492    1.0000 </r>
       <r>   -7.9383    1.0000 </r>
       <r>   -7.6813    1.0000 </r>
       <r>   -6.6083    1.0000 </r>
       <r>   -6.3821    1.0000 </r>
       <r>   -6.3713    1.0000 </r>
       <r>   -6.2304    1.0000 </r>
       <r>   -5.7700    1.0000 </r>
       <r>   -4.3045    1.0000 </r>
       <r>   -4.2924    1.0000 </r>
       <r>   -1.2922    0.0000 </r>
       <r>   -1.2747    0.0000 </r>
       <r>   -0.2280    0.0000 </r>
       <r>    0.7764    0.0000 </r>
       <r>    0.7956    0.0000 </r>
       <r>    0.8102    0.0000 </r>
       <r>    1.6064    0.0000 </r>
       <r>    1.9338    0.0000 </r>
       <r>    2.3341    0.0000 </r>
       <r>    2.8511    0.0000 </r>
      </set>
      <set comment="kpoint 7">
       <r>  -22.0419    1.0000 </r>
       <r>  -20.9267    1.0000 </r>
       <r>  -20.1976    1.0000 </r>
       <r>  -20.1882    1.0000 </r>
       <r>  -18.7595    1.0000 </r>
       <r>  -18.7514    1.0000 </r>
       <r>  -18.0631    1.0000 </r>
       <r>  -16.7478    1.0000 </r>
       <r>  -16.7423    1.0000 </r>
       <r>  -14.7525    1.0000 </r>
       <r>  -14.6350    1.0000 </r>
       <r>  -14.6138    1.0000 </r>
       <r>  -13.5098    1.0000 </r>
       <r>  -13.4906    1.0000 </r>
       <r>  -12.1922    1.0000 </r>
       <r>  -12.1748    1.0000 </r>
       <r>  -11.1117    1.0000 </r>
       <r>  -11.0884    1.0000 </r>
       <r>  -10.1048    1.0000 </r>
       <r>   -9.8574    1.0000 </r>
       <r>   -9.5042    1.0000 </r>
       <r>   -9.4839    1.0000 </r>
       <r>   -9.0408    1.0000 </r>
       <r>   -8.7921    1.0000 </r>
       <r>   -8.7712    1.0000 </r>
       <r>   -8.7456    1.0000 </r>
       <r>   -7.9477    1.0000 </r>
       <r>   -7.9411    1.0000 </r>
       <r>   -7.6748    1.0000 </r>
       <r>   -6.6179    1.0000 </r>
       <r>   -6.3820    1.0000 </r>
       <r>   -6.3726    1.0000 </r>
       <r>   -6.2205    1.0000 </r>
       <r>   -5.7668    1.0000 </r>
       <r>   -4.3063    1.0000 </r>
       <r>   -4.2911    1.0000 </r>
       <r>   -1.2947    0.0000 </r>
       <r>   -1.2714    0.0000 </r>
       <r>   -0.2341    0.0000 </r>
       <r>    0.7765    0.0000 </r>
       <r>    0.7981    0.0000 </r>
       <r>    0.8103    0.0000 </r>
       <r>    1.6064    0.0000 </r>
       <r>    1.9338    0.0000 </r>
       <r>    2.3341    0.0000 </r>
       <r>    2.8511    0.0000 </r>
      </set>
      <set comment="kpoint 8">
       <r>  -21.7752    1.0000 </r>
       <r>  -21.4030    1.0000 </r>
       <r>  -20.3055    1.0000 </r>
       <r>  -20.2885    1.0000 </r>
       <r>  -18.1665    1.0000 </r>
       <r>  -18.1506    1.0000 </r>
       <r>  -17.4894    1.0000 </r>
       <r>  -17.4746    1.0000 </r>
       <r>  -17.2251    1.0000 </r>
       <r>  -15.7557    1.0000 </r>
       <r>  -14.3257    1.0000 </r>
       <r>  -14.3141    1.0000 </r>
       <r>  -13.9547    1.0000 </r>
       <r>  -13.9417    1.0000 </r>
       <r>  -11.2666    1.0000 </r>
       <r>  -11.2562    1.0000 </r>
       <r>  -10.5960    1.0000 </r>
       <r>  -10.5748    1.0000 </r>
       <r>  -10.3352    1.0000 </r>
       <r>  -10.3263    1.0000 </r>
       <r>   -9.7875    1.0000 </r>
       <r>   -9.3478    1.0000 </r>
       <r>   -9.1368    1.0000 </r>
       <r>   -9.1083    1.0000 </r>
       <r>   -9.0974    1.0000 </r>
       <r>   -8.6590    1.0000 </r>
       <r>   -8.0695    1.0000 </r>
       <r>   -8.0557    1.0000 </r>
       <r>   -7.5546    1.0000 </r>
       <r>   -7.1524    1.0000 </r>
       <r>   -6.6459    1.0000 </r>
       <r>   -5.7536    1.0000 </r>
       <r>   -5.7430    1.0000 </r>
       <r>   -5.1889    1.0000 </r>
       <r>   -5.0529    1.0000 </r>
       <r>   -5.0423    1.0000 </r>
       <r>   -0.9873    0.0000 </r>
       <r>   -0.5882    0.0000 </r>
       <r>   -0.5775    0.0000 </r>
       <r>    0.0975    0.0000 </r>
       <r>    0.1111    0.0000 </r>
       <r>    1.1735    0.0000 </r>
       <r>    1.6817    0.0000 </r>
       <r>    1.9738    0.0000 </r>
       <r>    2.3063    0.0000 </r>
       <r>    2.4868    0.0000 </r>
      </set>
      <set comment="kpoint 9">
       <r>  -21.7751    1.0000 </r>
       <r>  -21.4026    1.0000 </r>
       <r>  -20.3046    1.0000 </r>
       <r>  -20.2906    1.0000 </r>
       <r>  -18.1648    1.0000 </r>
       <r>  -18.1519    1.0000 </r>
       <r>  -17.4867    1.0000 </r>
       <r>  -17.4753    1.0000 </r>
       <r>  -17.2313    1.0000 </r>
       <r>  -15.7383    1.0000 </r>
       <r>  -14.3324    1.0000 </r>
       <r>  -14.3159    1.0000 </r>
       <r>  -13.9609    1.0000 </r>
       <r>  -13.9445    1.0000 </r>
       <r>  -11.2645    1.0000 </r>
       <r>  -11.2497    1.0000 </r>
       <r>  -10.6176    1.0000 </r>
       <r>  -10.5954    1.0000 </r>
       <r>  -10.3323    1.0000 </r>
       <r>  -10.3183    1.0000 </r>
       <r>   -9.7881    1.0000 </r>
       <r>   -9.3488    1.0000 </r>
       <r>   -9.1520    1.0000 </r>
       <r>   -9.0884    1.0000 </r>
       <r>   -9.0717    1.0000 </r>
       <r>   -8.6354    1.0000 </r>
       <r>   -8.0656    1.0000 </r>
       <r>   -8.0547    1.0000 </r>
       <r>   -7.5263    1.0000 </r>
       <r>   -7.1799    1.0000 </r>
       <r>   -6.6764    1.0000 </r>
       <r>   -5.7521    1.0000 </r>
       <r>   -5.7409    1.0000 </r>
       <r>   -5.2055    1.0000 </r>
       <r>   -5.0518    1.0000 </r>
       <r>   -5.0408    1.0000 </r>
       <r>   -0.9578    0.0000 </r>
       <r>   -0.5952    0.0000 </r>
       <r>   -0.5768    0.0000 </r>
       <r>    0.0911    0.0000 </r>
       <r>    0.1105    0.0000 </r>
       <r>    1.1735    0.0000 </r>
       <r>    1.6817    0.0000 </r>
       <r>    1.9737    0.0000 </r>
       <r>    2.3062    0.0000 </r>
       <r>    2.4866    0.0000 </r>
      </set>
      <set comment="kpoint 10">
       <r>  -21.7752    1.0000 </r>
       <r>  -21.4027    1.0000 </r>
       <r>  -20.3022    1.0000 </r>
       <r>  -20.2928    1.0000 </r>
       <r>  -18.1622    1.0000 </r>
       <r>  -18.1547    1.0000 </r>
       <r>  -17.4845    1.0000 </r>
       <r>  -17.4782    1.0000 </r>
       <r>  -17.2291    1.0000 </r>
       <r>  -15.7431    1.0000 </r>
       <r>  -14.3328    1.0000 </r>
       <r>  -14.3135    1.0000 </r>
       <r>  -13.9610    1.0000 </r>
       <r>  -13.9418    1.0000 </r>
       <r>  -11.2671    1.0000 </r>
       <r>  -11.2495    1.0000 </r>
       <r>  -10.6120    1.0000 </r>
       <r>  -10.5898    1.0000 </r>
       <r>  -10.3358    1.0000 </r>
       <r>  -10.3173    1.0000 </r>
       <r>   -9.7879    1.0000 </r>
       <r>   -9.3485    1.0000 </r>
       <r>   -9.1469    1.0000 </r>
       <r>   -9.0965    1.0000 </r>
       <r>   -9.0766    1.0000 </r>
       <r>   -8.6422    1.0000 </r>
       <r>   -8.0641    1.0000 </r>
       <r>   -8.0576    1.0000 </r>
       <r>   -7.5340    1.0000 </r>
       <r>   -7.1729    1.0000 </r>
       <r>   -6.6676    1.0000 </r>
       <r>   -5.7525    1.0000 </r>
       <r>   -5.7415    1.0000 </r>
       <r>   -5.2015    1.0000 </r>
       <r>   -5.0527    1.0000 </r>
       <r>   -5.0401    1.0000 </r>
       <r>   -0.9659    0.0000 </r>
       <r>   -0.5971    0.0000 </r>
       <r>   -0.5731    0.0000 </r>
       <r>    0.0903    0.0000 </r>
       <r>    0.1132    0.0000 </r>
       <r>    1.1735    0.0000 </r>
       <r>    1.6817    0.0000 </r>
       <r>    1.9738    0.0000 </r>
       <r>    2.3062    0.0000 </r>
       <r>    2.4867    0.0000 </r>
      </set>
      <set comment="kpoint 11">
       <r>  -22.0954    1.0000 </r>
       <r>  -20.6189    1.0000 </r>
       <r>  -20.6033    1.0000 </r>
       <r>  -19.5300    1.0000 </r>
       <r>  -19.5087    1.0000 </r>
       <r>  -18.4631    1.0000 </r>
       <r>  -18.4469    1.0000 </r>
       <r>  -16.7787    1.0000 </r>
       <r>  -16.1636    1.0000 </r>
       <r>  -15.2367    1.0000 </r>
       <r>  -14.2582    1.0000 </r>
       <r>  -14.1730    1.0000 </r>
       <r>  -14.1456    1.0000 </r>
       <r>  -12.6026    1.0000 </r>
       <r>  -12.3151    1.0000 </r>
       <r>  -12.2990    1.0000 </r>
       <r>  -12.2688    1.0000 </r>
       <r>  -10.5050    1.0000 </r>
       <r>  -10.4698    1.0000 </r>
       <r>  -10.1684    1.0000 </r>
       <r>   -9.1941    1.0000 </r>
       <r>   -9.1675    1.0000 </r>
       <r>   -9.1328    1.0000 </r>
       <r>   -9.1089    1.0000 </r>
       <r>   -8.4322    1.0000 </r>
       <r>   -8.4198    1.0000 </r>
       <r>   -8.0914    1.0000 </r>
       <r>   -8.0549    1.0000 </r>
       <r>   -7.2013    1.0000 </r>
       <r>   -7.1818    1.0000 </r>
       <r>   -6.4147    1.0000 </r>
       <r>   -6.1242    1.0000 </r>
       <r>   -6.1109    1.0000 </r>
       <r>   -6.0963    1.0000 </r>
       <r>   -4.2562    1.0000 </r>
       <r>   -3.9022    1.0000 </r>
       <r>   -1.7066    0.0000 </r>
       <r>   -1.2676    0.0000 </r>
       <r>    0.2591    0.0000 </r>
       <r>    0.2837    0.0000 </r>
       <r>    0.7376    0.0000 </r>
       <r>    1.5328    0.0000 </r>
       <r>    1.8593    0.0000 </r>
       <r>    2.0009    0.0000 </r>
       <r>    2.0273    0.0000 </r>
       <r>    2.7774    0.0000 </r>
      </set>
      <set comment="kpoint 12">
       <r>  -22.0954    1.0000 </r>
       <r>  -20.6160    1.0000 </r>
       <r>  -20.6062    1.0000 </r>
       <r>  -19.5266    1.0000 </r>
       <r>  -19.5130    1.0000 </r>
       <r>  -18.4600    1.0000 </r>
       <r>  -18.4496    1.0000 </r>
       <r>  -16.7794    1.0000 </r>
       <r>  -16.1553    1.0000 </r>
       <r>  -15.2541    1.0000 </r>
       <r>  -14.2483    1.0000 </r>
       <r>  -14.1619    1.0000 </r>
       <r>  -14.1456    1.0000 </r>
       <r>  -12.6140    1.0000 </r>
       <r>  -12.3205    1.0000 </r>
       <r>  -12.3112    1.0000 </r>
       <r>  -12.2621    1.0000 </r>
       <r>  -10.4923    1.0000 </r>
       <r>  -10.4732    1.0000 </r>
       <r>  -10.1685    1.0000 </r>
       <r>   -9.1762    1.0000 </r>
       <r>   -9.1616    1.0000 </r>
       <r>   -9.1315    1.0000 </r>
       <r>   -9.1203    1.0000 </r>
       <r>   -8.4303    1.0000 </r>
       <r>   -8.4226    1.0000 </r>
       <r>   -8.0880    1.0000 </r>
       <r>   -8.0701    1.0000 </r>
       <r>   -7.1946    1.0000 </r>
       <r>   -7.1822    1.0000 </r>
       <r>   -6.3871    1.0000 </r>
       <r>   -6.1525    1.0000 </r>
       <r>   -6.1114    1.0000 </r>
       <r>   -6.1037    1.0000 </r>
       <r>   -4.2640    1.0000 </r>
       <r>   -3.8890    1.0000 </r>
       <r>   -1.7244    0.0000 </r>
       <r>   -1.2556    0.0000 </r>
       <r>    0.2745    0.0000 </r>
       <r>    0.2855    0.0000 </r>
       <r>    0.7376    0.0000 </r>
       <r>    1.5328    0.0000 </r>
       <r>    1.8593    0.0000 </r>
       <r>    1.9961    0.0000 </r>
       <r>    2.0122    0.0000 </r>
       <r>    2.7773    0.0000 </r>
      </set>
      <set comment="kpoint 13">
       <r>  -22.0954    1.0000 </r>
       <r>  -20.6178    1.0000 </r>
       <r>  -20.6046    1.0000 </r>
       <r>  -19.5282    1.0000 </r>
       <r>  -19.5103    1.0000 </r>
       <r>  -18.4619    1.0000 </r>
       <r>  -18.4481    1.0000 </r>
       <r>  -16.7782    1.0000 </r>
       <r>  -16.1666    1.0000 </r>
       <r>  -15.2305    1.0000 </r>
       <r>  -14.2630    1.0000 </r>
       <r>  -14.1709    1.0000 </r>
       <r>  -14.1504    1.0000 </r>
       <r>  -12.5988    1.0000 </r>
       <r>  -12.3098    1.0000 </r>
       <r>  -12.2969    1.0000 </r>
       <r>  -12.2719    1.0000 </r>
       <r>  -10.5032    1.0000 </r>
       <r>  -10.4750    1.0000 </r>
       <r>  -10.1683    1.0000 </r>
       <r>   -9.1971    1.0000 </r>
       <r>   -9.1733    1.0000 </r>
       <r>   -9.1294    1.0000 </r>
       <r>   -9.1087    1.0000 </r>
       <r>   -8.4311    1.0000 </r>
       <r>   -8.4206    1.0000 </r>
       <r>   -8.0853    1.0000 </r>
       <r>   -8.0565    1.0000 </r>
       <r>   -7.2009    1.0000 </r>
       <r>   -7.1845    1.0000 </r>
       <r>   -6.4239    1.0000 </r>
       <r>   -6.1148    1.0000 </r>
       <r>   -6.1080    1.0000 </r>
       <r>   -6.0963    1.0000 </r>
       <r>   -4.2533    1.0000 </r>
       <r>   -3.9070    1.0000 </r>
       <r>   -1.7001    0.0000 </r>
       <r>   -1.2721    0.0000 </r>
       <r>    0.2588    0.0000 </r>
       <r>    0.2777    0.0000 </r>
       <r>    0.7376    0.0000 </r>
       <r>    1.5328    0.0000 </r>
       <r>    1.8593    0.0000 </r>
       <r>    2.0067    0.0000 </r>
       <r>    2.0286    0.0000 </r>
       <r>    2.7774    0.0000 </r>
      </set>
      <set comment="kpoint 14">
       <r>  -21.8818    1.0000 </r>
       <r>  -21.1383    1.0000 </r>
       <r>  -20.7685    1.0000 </r>
       <r>  -19.6742    1.0000 </r>
       <r>  -18.9582    1.0000 </r>
       <r>  -17.9173    1.0000 </r>
       <r>  -17.5958    1.0000 </r>
       <r>  -17.5697    1.0000 </r>
       <r>  -16.6720    1.0000 </r>
       <r>  -15.2639    1.0000 </r>
       <r>  -15.2459    1.0000 </r>
       <r>  -14.6295    1.0000 </r>
       <r>  -13.7262    1.0000 </r>
       <r>  -12.8217    1.0000 </r>
       <r>  -11.8998    1.0000 </r>
       <r>  -11.6755    1.0000 </r>
       <r>  -11.3903    1.0000 </r>
       <r>  -10.0402    1.0000 </r>
       <r>   -9.9141    1.0000 </r>
       <r>   -9.9042    1.0000 </r>
       <r>   -9.7185    1.0000 </r>
       <r>   -9.6374    1.0000 </r>
       <r>   -9.2840    1.0000 </r>
       <r>   -9.2652    1.0000 </r>
       <r>   -9.0368    1.0000 </r>
       <r>   -8.6079    1.0000 </r>
       <r>   -8.2733    1.0000 </r>
       <r>   -7.5633    1.0000 </r>
       <r>   -7.3561    1.0000 </r>
       <r>   -7.1544    1.0000 </r>
       <r>   -6.5668    1.0000 </r>
       <r>   -6.5330    1.0000 </r>
       <r>   -5.5860    1.0000 </r>
       <r>   -5.3773    1.0000 </r>
       <r>   -5.0739    1.0000 </r>
       <r>   -4.4341    1.0000 </r>
       <r>   -1.2946    0.0000 </r>
       <r>   -0.7004    0.0000 </r>
       <r>   -0.4248    0.0000 </r>
       <r>   -0.2895    0.0000 </r>
       <r>    1.0283    0.0000 </r>
       <r>    1.2221    0.0000 </r>
       <r>    1.8269    0.0000 </r>
       <r>    2.0447    0.0000 </r>
       <r>    2.1573    0.0000 </r>
       <r>    2.4098    0.0000 </r>
      </set>
      <set comment="kpoint 15">
       <r>  -21.8817    1.0000 </r>
       <r>  -21.1379    1.0000 </r>
       <r>  -20.7689    1.0000 </r>
       <r>  -19.6749    1.0000 </r>
       <r>  -18.9584    1.0000 </r>
       <r>  -17.9170    1.0000 </r>
       <r>  -17.5958    1.0000 </r>
       <r>  -17.5713    1.0000 </r>
       <r>  -16.6676    1.0000 </r>
       <r>  -15.2613    1.0000 </r>
       <r>  -15.2471    1.0000 </r>
       <r>  -14.6324    1.0000 </r>
       <r>  -13.7196    1.0000 </r>
       <r>  -12.8286    1.0000 </r>
       <r>  -11.9074    1.0000 </r>
       <r>  -11.6928    1.0000 </r>
       <r>  -11.3806    1.0000 </r>
       <r>  -10.0307    1.0000 </r>
       <r>   -9.9198    1.0000 </r>
       <r>   -9.9145    1.0000 </r>
       <r>   -9.7149    1.0000 </r>
       <r>   -9.6173    1.0000 </r>
       <r>   -9.2918    1.0000 </r>
       <r>   -9.2550    1.0000 </r>
       <r>   -9.0380    1.0000 </r>
       <r>   -8.6064    1.0000 </r>
       <r>   -8.2555    1.0000 </r>
       <r>   -7.5867    1.0000 </r>
       <r>   -7.3522    1.0000 </r>
       <r>   -7.1231    1.0000 </r>
       <r>   -6.5662    1.0000 </r>
       <r>   -6.5651    1.0000 </r>
       <r>   -5.5846    1.0000 </r>
       <r>   -5.3921    1.0000 </r>
       <r>   -5.0782    1.0000 </r>
       <r>   -4.4236    1.0000 </r>
       <r>   -1.3106    0.0000 </r>
       <r>   -0.6738    0.0000 </r>
       <r>   -0.4179    0.0000 </r>
       <r>   -0.2908    0.0000 </r>
       <r>    1.0282    0.0000 </r>
       <r>    1.2177    0.0000 </r>
       <r>    1.8269    0.0000 </r>
       <r>    2.0447    0.0000 </r>
       <r>    2.1573    0.0000 </r>
       <r>    2.3957    0.0000 </r>
      </set>
      <set comment="kpoint 16">
       <r>  -21.8818    1.0000 </r>
       <r>  -21.1379    1.0000 </r>
       <r>  -20.7689    1.0000 </r>
       <r>  -19.6746    1.0000 </r>
       <r>  -18.9577    1.0000 </r>
       <r>  -17.9168    1.0000 </r>
       <r>  -17.5959    1.0000 </r>
       <r>  -17.5708    1.0000 </r>
       <r>  -16.6737    1.0000 </r>
       <r>  -15.2571    1.0000 </r>
       <r>  -15.2366    1.0000 </r>
       <r>  -14.6424    1.0000 </r>
       <r>  -13.7359    1.0000 </r>
       <r>  -12.8134    1.0000 </r>
       <r>  -11.8896    1.0000 </r>
       <r>  -11.6797    1.0000 </r>
       <r>  -11.3954    1.0000 </r>
       <r>  -10.0498    1.0000 </r>
       <r>   -9.9266    1.0000 </r>
       <r>   -9.9142    1.0000 </r>
       <r>   -9.7011    1.0000 </r>
       <r>   -9.6333    1.0000 </r>
       <r>   -9.2867    1.0000 </r>
       <r>   -9.2555    1.0000 </r>
       <r>   -9.0381    1.0000 </r>
       <r>   -8.6060    1.0000 </r>
       <r>   -8.2477    1.0000 </r>
       <r>   -7.5861    1.0000 </r>
       <r>   -7.3547    1.0000 </r>
       <r>   -7.1493    1.0000 </r>
       <r>   -6.5708    1.0000 </r>
       <r>   -6.5386    1.0000 </r>
       <r>   -5.5750    1.0000 </r>
       <r>   -5.3875    1.0000 </r>
       <r>   -5.0694    1.0000 </r>
       <r>   -4.4407    1.0000 </r>
       <r>   -1.2846    0.0000 </r>
       <r>   -0.6818    0.0000 </r>
       <r>   -0.4349    0.0000 </r>
       <r>   -0.3097    0.0000 </r>
       <r>    1.0283    0.0000 </r>
       <r>    1.2335    0.0000 </r>
       <r>    1.8269    0.0000 </r>
       <r>    2.0446    0.0000 </r>
       <r>    2.1573    0.0000 </r>
       <r>    2.4039    0.0000 </r>
      </set>
      <set comment="kpoint 17">
       <r>  -21.8817    1.0000 </r>
       <r>  -21.1380    1.0000 </r>
       <r>  -20.7688    1.0000 </r>
       <r>  -19.6748    1.0000 </r>
       <r>  -18.9585    1.0000 </r>
       <r>  -17.9171    1.0000 </r>
       <r>  -17.5984    1.0000 </r>
       <r>  -17.5683    1.0000 </r>
       <r>  -16.6675    1.0000 </r>
       <r>  -15.2657    1.0000 </r>
       <r>  -15.2469    1.0000 </r>
       <r>  -14.6291    1.0000 </r>
       <r>  -13.7179    1.0000 </r>
       <r>  -12.8299    1.0000 </r>
       <r>  -11.9095    1.0000 </r>
       <r>  -11.6902    1.0000 </r>
       <r>  -11.3801    1.0000 </r>
       <r>  -10.0296    1.0000 </r>
       <r>   -9.9145    1.0000 </r>
       <r>   -9.9126    1.0000 </r>
       <r>   -9.7192    1.0000 </r>
       <r>   -9.6199    1.0000 </r>
       <r>   -9.2862    1.0000 </r>
       <r>   -9.2630    1.0000 </r>
       <r>   -9.0375    1.0000 </r>
       <r>   -8.6070    1.0000 </r>
       <r>   -8.2632    1.0000 </r>
       <r>   -7.5790    1.0000 </r>
       <r>   -7.3529    1.0000 </r>
       <r>   -7.1277    1.0000 </r>
       <r>   -6.5643    1.0000 </r>
       <r>   -6.5613    1.0000 </r>
       <r>   -5.5873    1.0000 </r>
       <r>   -5.3885    1.0000 </r>
       <r>   -5.0788    1.0000 </r>
       <r>   -4.4229    1.0000 </r>
       <r>   -1.3117    0.0000 </r>
       <r>   -0.6812    0.0000 </r>
       <r>   -0.4147    0.0000 </r>
       <r>   -0.2866    0.0000 </r>
       <r>    1.0282    0.0000 </r>
       <r>    1.2154    0.0000 </r>
       <r>    1.8269    0.0000 </r>
       <r>    2.0447    0.0000 </r>
       <r>    2.1573    0.0000 </r>
       <r>    2.3984    0.0000 </r>
      </set>
      <set comment="kpoint 18">
       <r>  -21.8817    1.0000 </r>
       <r>  -21.1379    1.0000 </r>
       <r>  -20.7690    1.0000 </r>
       <r>  -19.6748    1.0000 </r>
       <r>  -18.9577    1.0000 </r>
       <r>  -17.9167    1.0000 </r>
       <r>  -17.5948    1.0000 </r>
       <r>  -17.5724    1.0000 </r>
       <r>  -16.6722    1.0000 </r>
       <r>  -15.2544    1.0000 </r>
       <r>  -15.2401    1.0000 </r>
       <r>  -14.6422    1.0000 </r>
       <r>  -13.7329    1.0000 </r>
       <r>  -12.8164    1.0000 </r>
       <r>  -11.8930    1.0000 </r>
       <r>  -11.6854    1.0000 </r>
       <r>  -11.3914    1.0000 </r>
       <r>  -10.0472    1.0000 </r>
       <r>   -9.9288    1.0000 </r>
       <r>   -9.9143    1.0000 </r>
       <r>   -9.7018    1.0000 </r>
       <r>   -9.6265    1.0000 </r>
       <r>   -9.2910    1.0000 </r>
       <r>   -9.2507    1.0000 </r>
       <r>   -9.0384    1.0000 </r>
       <r>   -8.6057    1.0000 </r>
       <r>   -8.2442    1.0000 </r>
       <r>   -7.5921    1.0000 </r>
       <r>   -7.3535    1.0000 </r>
       <r>   -7.1390    1.0000 </r>
       <r>   -6.5698    1.0000 </r>
       <r>   -6.5494    1.0000 </r>
       <r>   -5.5755    1.0000 </r>
       <r>   -5.3914    1.0000 </r>
       <r>   -5.0714    1.0000 </r>
       <r>   -4.4366    1.0000 </r>
       <r>   -1.2907    0.0000 </r>
       <r>   -0.6748    0.0000 </r>
       <r>   -0.4306    0.0000 </r>
       <r>   -0.3092    0.0000 </r>
       <r>    1.0283    0.0000 </r>
       <r>    1.2310    0.0000 </r>
       <r>    1.8269    0.0000 </r>
       <r>    2.0447    0.0000 </r>
       <r>    2.1573    0.0000 </r>
       <r>    2.5529    0.0000 </r>
      </set>
      <set comment="kpoint 19">
       <r>  -21.8818    1.0000 </r>
       <r>  -21.1382    1.0000 </r>
       <r>  -20.7686    1.0000 </r>
       <r>  -19.6742    1.0000 </r>
       <r>  -18.9581    1.0000 </r>
       <r>  -17.9172    1.0000 </r>
       <r>  -17.5955    1.0000 </r>
       <r>  -17.5698    1.0000 </r>
       <r>  -16.6737    1.0000 </r>
       <r>  -15.2646    1.0000 </r>
       <r>  -15.2402    1.0000 </r>
       <r>  -14.6332    1.0000 </r>
       <r>  -13.7311    1.0000 </r>
       <r>  -12.8171    1.0000 </r>
       <r>  -11.8950    1.0000 </r>
       <r>  -11.6725    1.0000 </r>
       <r>  -11.3942    1.0000 </r>
       <r>  -10.0456    1.0000 </r>
       <r>   -9.9141    1.0000 </r>
       <r>   -9.9079    1.0000 </r>
       <r>   -9.7128    1.0000 </r>
       <r>   -9.6417    1.0000 </r>
       <r>   -9.2843    1.0000 </r>
       <r>   -9.2635    1.0000 </r>
       <r>   -9.0369    1.0000 </r>
       <r>   -8.6076    1.0000 </r>
       <r>   -8.2687    1.0000 </r>
       <r>   -7.5654    1.0000 </r>
       <r>   -7.3565    1.0000 </r>
       <r>   -7.1600    1.0000 </r>
       <r>   -6.5686    1.0000 </r>
       <r>   -6.5271    1.0000 </r>
       <r>   -5.5826    1.0000 </r>
       <r>   -5.3771    1.0000 </r>
       <r>   -5.0713    1.0000 </r>
       <r>   -4.4389    1.0000 </r>
       <r>   -1.2873    0.0000 </r>
       <r>   -0.7009    0.0000 </r>
       <r>   -0.4294    0.0000 </r>
       <r>   -0.2962    0.0000 </r>
       <r>    1.0283    0.0000 </r>
       <r>    1.2271    0.0000 </r>
       <r>    1.8269    0.0000 </r>
       <r>    2.0447    0.0000 </r>
       <r>    2.1573    0.0000 </r>
       <r>    2.4112    0.0000 </r>
      </set>
      <set comment="kpoint 20">
       <r>  -21.5671    1.0000 </r>
       <r>  -21.5575    1.0000 </r>
       <r>  -20.8212    1.0000 </r>
       <r>  -19.7259    1.0000 </r>
       <r>  -18.3133    1.0000 </r>
       <r>  -18.2994    1.0000 </r>
       <r>  -17.3160    1.0000 </r>
       <r>  -17.3012    1.0000 </r>
       <r>  -16.9810    1.0000 </r>
       <r>  -15.9516    1.0000 </r>
       <r>  -15.0114    1.0000 </r>
       <r>  -15.0003    1.0000 </r>
       <r>  -13.2873    1.0000 </r>
       <r>  -13.2755    1.0000 </r>
       <r>  -11.3459    1.0000 </r>
       <r>  -10.9939    1.0000 </r>
       <r>  -10.9834    1.0000 </r>
       <r>  -10.5086    1.0000 </r>
       <r>  -10.4992    1.0000 </r>
       <r>   -9.9196    1.0000 </r>
       <r>   -9.6195    1.0000 </r>
       <r>   -9.5395    1.0000 </r>
       <r>   -9.5316    1.0000 </r>
       <r>   -9.3261    1.0000 </r>
       <r>   -8.6682    1.0000 </r>
       <r>   -8.4358    1.0000 </r>
       <r>   -8.1475    1.0000 </r>
       <r>   -8.1296    1.0000 </r>
       <r>   -7.4111    1.0000 </r>
       <r>   -7.0491    1.0000 </r>
       <r>   -7.0246    1.0000 </r>
       <r>   -5.8614    1.0000 </r>
       <r>   -5.8496    1.0000 </r>
       <r>   -5.0547    1.0000 </r>
       <r>   -5.0205    1.0000 </r>
       <r>   -5.0076    1.0000 </r>
       <r>   -1.1070    0.0000 </r>
       <r>   -0.8233    0.0000 </r>
       <r>   -0.8124    0.0000 </r>
       <r>    0.4040    0.0000 </r>
       <r>    0.4156    0.0000 </r>
       <r>    1.4636    0.0000 </r>
       <r>    1.4647    0.0000 </r>
       <r>    2.2671    0.0000 </r>
       <r>    2.2675    0.0000 </r>
       <r>    2.6041    0.0000 </r>
      </set>
      <set comment="kpoint 21">
       <r>  -21.5685    1.0000 </r>
       <r>  -21.5557    1.0000 </r>
       <r>  -20.8217    1.0000 </r>
       <r>  -19.7266    1.0000 </r>
       <r>  -18.3155    1.0000 </r>
       <r>  -18.2966    1.0000 </r>
       <r>  -17.3168    1.0000 </r>
       <r>  -17.2973    1.0000 </r>
       <r>  -16.9914    1.0000 </r>
       <r>  -15.9299    1.0000 </r>
       <r>  -15.0211    1.0000 </r>
       <r>  -15.0037    1.0000 </r>
       <r>  -13.2919    1.0000 </r>
       <r>  -13.2729    1.0000 </r>
       <r>  -11.3676    1.0000 </r>
       <r>  -10.9970    1.0000 </r>
       <r>  -10.9780    1.0000 </r>
       <r>  -10.5053    1.0000 </r>
       <r>  -10.4891    1.0000 </r>
       <r>   -9.8953    1.0000 </r>
       <r>   -9.6458    1.0000 </r>
       <r>   -9.5415    1.0000 </r>
       <r>   -9.5310    1.0000 </r>
       <r>   -9.3430    1.0000 </r>
       <r>   -8.6665    1.0000 </r>
       <r>   -8.4073    1.0000 </r>
       <r>   -8.1275    1.0000 </r>
       <r>   -8.0998    1.0000 </r>
       <r>   -7.4077    1.0000 </r>
       <r>   -7.0803    1.0000 </r>
       <r>   -7.0485    1.0000 </r>
       <r>   -5.8646    1.0000 </r>
       <r>   -5.8477    1.0000 </r>
       <r>   -5.0710    1.0000 </r>
       <r>   -5.0191    1.0000 </r>
       <r>   -5.0009    1.0000 </r>
       <r>   -1.0766    0.0000 </r>
       <r>   -0.8378    0.0000 </r>
       <r>   -0.8157    0.0000 </r>
       <r>    0.4018    0.0000 </r>
       <r>    0.4215    0.0000 </r>
       <r>    1.4634    0.0000 </r>
       <r>    1.4649    0.0000 </r>
       <r>    2.2669    0.0000 </r>
       <r>    2.2675    0.0000 </r>
       <r>    2.4864    0.0000 </r>
      </set>
      <set comment="kpoint 22">
       <r>  -21.5698    1.0000 </r>
       <r>  -21.5545    1.0000 </r>
       <r>  -20.8216    1.0000 </r>
       <r>  -19.7265    1.0000 </r>
       <r>  -18.3173    1.0000 </r>
       <r>  -18.2949    1.0000 </r>
       <r>  -17.3194    1.0000 </r>
       <r>  -17.2957    1.0000 </r>
       <r>  -16.9882    1.0000 </r>
       <r>  -15.9358    1.0000 </r>
       <r>  -15.0218    1.0000 </r>
       <r>  -14.9995    1.0000 </r>
       <r>  -13.2943    1.0000 </r>
       <r>  -13.2700    1.0000 </r>
       <r>  -11.3620    1.0000 </r>
       <r>  -10.9998    1.0000 </r>
       <r>  -10.9755    1.0000 </r>
       <r>  -10.5097    1.0000 </r>
       <r>  -10.4883    1.0000 </r>
       <r>   -9.9016    1.0000 </r>
       <r>   -9.6391    1.0000 </r>
       <r>   -9.5423    1.0000 </r>
       <r>   -9.5298    1.0000 </r>
       <r>   -9.3384    1.0000 </r>
       <r>   -8.6670    1.0000 </r>
       <r>   -8.4145    1.0000 </r>
       <r>   -8.1368    1.0000 </r>
       <r>   -8.1045    1.0000 </r>
       <r>   -7.4086    1.0000 </r>
       <r>   -7.0770    1.0000 </r>
       <r>   -7.0367    1.0000 </r>
       <r>   -5.8662    1.0000 </r>
       <r>   -5.8458    1.0000 </r>
       <r>   -5.0672    1.0000 </r>
       <r>   -5.0218    1.0000 </r>
       <r>   -4.9998    1.0000 </r>
       <r>   -1.0849    0.0000 </r>
       <r>   -0.8393    0.0000 </r>
       <r>   -0.8094    0.0000 </r>
       <r>    0.3986    0.0000 </r>
       <r>    0.4238    0.0000 </r>
       <r>    1.4633    0.0000 </r>
       <r>    1.4650    0.0000 </r>
       <r>    2.2669    0.0000 </r>
       <r>    2.2676    0.0000 </r>
       <r>    2.4813    0.0000 </r>
      </set>
      <set comment="kpoint 23">
       <r>  -21.6155    1.0000 </r>
       <r>  -21.2515    1.0000 </r>
       <r>  -21.2360    1.0000 </r>
       <r>  -19.0711    1.0000 </r>
       <r>  -19.0492    1.0000 </r>
       <r>  -18.3558    1.0000 </r>
       <r>  -17.0972    1.0000 </r>
       <r>  -17.0802    1.0000 </r>
       <r>  -16.7130    1.0000 </r>
       <r>  -15.6734    1.0000 </r>
       <r>  -15.6275    1.0000 </r>
       <r>  -15.6033    1.0000 </r>
       <r>  -12.9210    1.0000 </r>
       <r>  -12.2722    1.0000 </r>
       <r>  -12.2503    1.0000 </r>
       <r>  -11.3510    1.0000 </r>
       <r>  -10.5676    1.0000 </r>
       <r>  -10.5589    1.0000 </r>
       <r>  -10.5370    1.0000 </r>
       <r>   -9.8294    1.0000 </r>
       <r>   -9.8071    1.0000 </r>
       <r>   -9.5987    1.0000 </r>
       <r>   -9.1674    1.0000 </r>
       <r>   -9.1548    1.0000 </r>
       <r>   -8.8425    1.0000 </r>
       <r>   -8.7995    1.0000 </r>
       <r>   -7.8892    1.0000 </r>
       <r>   -7.7084    1.0000 </r>
       <r>   -7.6633    1.0000 </r>
       <r>   -7.0761    1.0000 </r>
       <r>   -6.6753    1.0000 </r>
       <r>   -6.6555    1.0000 </r>
       <r>   -5.8926    1.0000 </r>
       <r>   -5.0142    1.0000 </r>
       <r>   -4.9933    1.0000 </r>
       <r>   -4.6757    1.0000 </r>
       <r>   -1.2234    0.0000 </r>
       <r>   -1.0421    0.0000 </r>
       <r>   -1.0114    0.0000 </r>
       <r>    0.5261    0.0000 </r>
       <r>    1.3917    0.0000 </r>
       <r>    1.4713    0.0000 </r>
       <r>    1.4969    0.0000 </r>
       <r>    1.8992    0.0000 </r>
       <r>    1.9010    0.0000 </r>
       <r>    2.1941    0.0000 </r>
      </set>
      <set comment="kpoint 24">
       <r>  -21.6155    1.0000 </r>
       <r>  -21.2487    1.0000 </r>
       <r>  -21.2389    1.0000 </r>
       <r>  -19.0675    1.0000 </r>
       <r>  -19.0535    1.0000 </r>
       <r>  -18.3552    1.0000 </r>
       <r>  -17.0961    1.0000 </r>
       <r>  -17.0854    1.0000 </r>
       <r>  -16.7054    1.0000 </r>
       <r>  -15.6899    1.0000 </r>
       <r>  -15.6146    1.0000 </r>
       <r>  -15.6028    1.0000 </r>
       <r>  -12.9077    1.0000 </r>
       <r>  -12.2769    1.0000 </r>
       <r>  -12.2657    1.0000 </r>
       <r>  -11.3659    1.0000 </r>
       <r>  -10.5517    1.0000 </r>
       <r>  -10.5471    1.0000 </r>
       <r>  -10.5304    1.0000 </r>
       <r>   -9.8297    1.0000 </r>
       <r>   -9.8193    1.0000 </r>
       <r>   -9.5992    1.0000 </r>
       <r>   -9.1648    1.0000 </r>
       <r>   -9.1569    1.0000 </r>
       <r>   -8.8353    1.0000 </r>
       <r>   -8.8149    1.0000 </r>
       <r>   -7.8650    1.0000 </r>
       <r>   -7.6937    1.0000 </r>
       <r>   -7.6709    1.0000 </r>
       <r>   -7.1002    1.0000 </r>
       <r>   -6.6693    1.0000 </r>
       <r>   -6.6569    1.0000 </r>
       <r>   -5.8971    1.0000 </r>
       <r>   -5.0152    1.0000 </r>
       <r>   -5.0059    1.0000 </r>
       <r>   -4.6622    1.0000 </r>
       <r>   -1.2443    0.0000 </r>
       <r>   -1.0215    0.0000 </r>
       <r>   -1.0097    0.0000 </r>
       <r>    0.5373    0.0000 </r>
       <r>    1.3916    0.0000 </r>
       <r>    1.4699    0.0000 </r>
       <r>    1.4843    0.0000 </r>
       <r>    1.8996    0.0000 </r>
       <r>    1.9007    0.0000 </r>
       <r>    2.1940    0.0000 </r>
      </set>
      <set comment="kpoint 25">
       <r>  -21.6156    1.0000 </r>
       <r>  -21.2502    1.0000 </r>
       <r>  -21.2372    1.0000 </r>
       <r>  -19.0693    1.0000 </r>
       <r>  -19.0509    1.0000 </r>
       <r>  -18.3558    1.0000 </r>
       <r>  -17.0953    1.0000 </r>
       <r>  -17.0808    1.0000 </r>
       <r>  -16.7155    1.0000 </r>
       <r>  -15.6689    1.0000 </r>
       <r>  -15.6268    1.0000 </r>
       <r>  -15.6074    1.0000 </r>
       <r>  -12.9258    1.0000 </r>
       <r>  -12.2661    1.0000 </r>
       <r>  -12.2492    1.0000 </r>
       <r>  -11.3456    1.0000 </r>
       <r>  -10.5724    1.0000 </r>
       <r>  -10.5604    1.0000 </r>
       <r>  -10.5431    1.0000 </r>
       <r>   -9.8247    1.0000 </r>
       <r>   -9.8074    1.0000 </r>
       <r>   -9.5985    1.0000 </r>
       <r>   -9.1664    1.0000 </r>
       <r>   -9.1559    1.0000 </r>
       <r>   -8.8367    1.0000 </r>
       <r>   -8.8027    1.0000 </r>
       <r>   -7.8965    1.0000 </r>
       <r>   -7.7063    1.0000 </r>
       <r>   -7.6692    1.0000 </r>
       <r>   -7.0671    1.0000 </r>
       <r>   -6.6745    1.0000 </r>
       <r>   -6.6580    1.0000 </r>
       <r>   -5.8909    1.0000 </r>
       <r>   -5.0094    1.0000 </r>
       <r>   -4.9932    1.0000 </r>
       <r>   -4.6805    1.0000 </r>
       <r>   -1.2161    0.0000 </r>
       <r>   -1.0423    0.0000 </r>
       <r>   -1.0192    0.0000 </r>
       <r>    0.5220    0.0000 </r>
       <r>    1.3917    0.0000 </r>
       <r>    1.4763    0.0000 </r>
       <r>    1.4971    0.0000 </r>
       <r>    1.8994    0.0000 </r>
       <r>    1.9009    0.0000 </r>
       <r>    2.1941    0.0000 </r>
      </set>
     </set>
    </set>
   </array>
  </eigenvalues>
  <separator name="orbital magnetization" >
   <v name="MAGDIPOLOUT">      0.00000000      0.00000000      0.00000000</v>
  </separator>
  <dos>
   <i name="efermi">     -2.75529093 </i>
   <total>
    <array>
     <dimension dim="1">gridpoints</dimension>
     <dimension dim="2">spin</dimension>
     <field>energy</field>
     <field>total</field>
     <field>integrated</field>
     <set>
      <set comment="spin 1">
       <r>   -23.5114     0.0000     0.0000 </r>
       <r>   -23.4193     0.0000     0.0000 </r>
       <r>   -23.3273     0.0000     0.0000 </r>
       <r>   -23.2352     0.0000     0.0000 </r>
       <r>   -23.1431     0.0000     0.0000 </r>
       <r>   -23.0511     0.0000     0.0000 </r>
       <r>   -22.9590     0.0000     0.0000 </r>
       <r>   -22.8670     0.0000     0.0000 </r>
       <r>   -22.7749     0.0000     0.0000 </r>
       <r>   -22.6828     0.0000     0.0000 </r>
       <r>   -22.5908     0.0000     0.0000 </r>
       <r>   -22.4987     0.0000     0.0000 </r>
       <r>   -22.4067     0.0000     0.0000 </r>
       <r>   -22.3146     0.0236     0.0022 </r>
       <r>   -22.2225     1.1018     0.1036 </r>
       <r>   -22.1305     2.3660     0.3214 </r>
       <r>   -22.0384     3.5656     0.6497 </r>
       <r>   -21.9464     1.5378     0.7912 </r>
       <r>   -21.8543     4.0195     1.1613 </r>
       <r>   -21.7623     2.8377     1.4225 </r>
       <r>   -21.6702     1.1180     1.5254 </r>
       <r>   -21.5781     3.8569     1.8805 </r>
       <r>   -21.4861     3.8917     2.2388 </r>
       <r>   -21.3940     1.6564     2.3913 </r>
       <r>   -21.3020     1.3448     2.5151 </r>
       <r>   -21.2099     4.2361     2.9050 </r>
       <r>   -21.1178     4.6192     3.3303 </r>
       <r>   -21.0258     1.5139     3.4696 </r>
       <r>   -20.9337     1.1224     3.5730 </r>
       <r>   -20.8417     2.3742     3.7915 </r>
       <r>   -20.7496     5.5233     4.3000 </r>
       <r>   -20.6575     2.1373     4.4968 </r>
       <r>   -20.5655     4.2579     4.8888 </r>
       <r>   -20.4734     0.5435     4.9388 </r>
       <r>   -20.3814     0.5378     4.9883 </r>
       <r>   -20.2893     5.1540     5.4628 </r>
       <r>   -20.1972     4.6732     5.8930 </r>
       <r>   -20.1052     2.8980     6.1598 </r>
       <r>   -20.0131     1.1680     6.2673 </r>
       <r>   -19.9211     3.9805     6.6338 </r>
       <r>   -19.8290     0.2147     6.6535 </r>
       <r>   -19.7369     1.3543     6.7782 </r>
       <r>   -19.6449     7.5726     7.4753 </r>
       <r>   -19.5528     2.6647     7.7206 </r>
       <r>   -19.4608     4.0786     8.0961 </r>
       <r>   -19.3687     0.2944     8.1232 </r>
       <r>   -19.2766     1.8380     8.2924 </r>
       <r>   -19.1846     3.3953     8.6050 </r>
       <r>   -19.0925     1.0837     8.7047 </r>
       <r>   -19.0005     4.6696     9.1346 </r>
       <r>   -18.9084     5.7970     9.6683 </r>
       <r>   -18.8163     2.0544     9.8574 </r>
       <r>   -18.7243     4.0678    10.2319 </r>
       <r>   -18.6322     1.0263    10.3264 </r>
       <r>   -18.5402     0.0493    10.3309 </r>
       <r>   -18.4481     3.0255    10.6095 </r>
       <r>   -18.3560     4.0081    10.9784 </r>
       <r>   -18.2640     5.5532    11.4897 </r>
       <r>   -18.1719     2.5512    11.7245 </r>
       <r>   -18.0799     4.2010    12.1113 </r>
       <r>   -17.9878     1.9707    12.2927 </r>
       <r>   -17.8957     3.7882    12.6414 </r>
       <r>   -17.8037     1.4528    12.7752 </r>
       <r>   -17.7116     0.0066    12.7758 </r>
       <r>   -17.6196     1.7790    12.9396 </r>
       <r>   -17.5275     8.6463    13.7355 </r>
       <r>   -17.4355     5.0048    14.1963 </r>
       <r>   -17.3434     1.4113    14.3262 </r>
       <r>   -17.2513     4.7966    14.7678 </r>
       <r>   -17.1593     2.3712    14.9861 </r>
       <r>   -17.0672     3.8374    15.3393 </r>
       <r>   -16.9752     3.0806    15.6229 </r>
       <r>   -16.8831     0.9919    15.7143 </r>
       <r>   -16.7910     1.5363    15.8557 </r>
       <r>   -16.6990     8.7318    16.6595 </r>
       <r>   -16.6069     5.5023    17.1661 </r>
       <r>   -16.5149     0.1911    17.1837 </r>
       <r>   -16.4228     0.0000    17.1837 </r>
       <r>   -16.3307     0.0000    17.1837 </r>
       <r>   -16.2387     0.0415    17.1875 </r>
       <r>   -16.1466     1.7283    17.3466 </r>
       <r>   -16.0546     1.1489    17.4524 </r>
       <r>   -15.9625     4.8092    17.8951 </r>
       <r>   -15.8704     2.8332    18.1559 </r>
       <r>   -15.7784     0.5741    18.2088 </r>
       <r>   -15.6863     3.2348    18.5066 </r>
       <r>   -15.5943     5.2913    18.9937 </r>
       <r>   -15.5022     1.6144    19.1423 </r>
       <r>   -15.4101     0.0661    19.1484 </r>
       <r>   -15.3181     1.6559    19.3008 </r>
       <r>   -15.2260     9.8752    20.2099 </r>
       <r>   -15.1340     3.4736    20.5297 </r>
       <r>   -15.0419     1.0139    20.6230 </r>
       <r>   -14.9498     4.8776    21.0721 </r>
       <r>   -14.8578     4.4292    21.4798 </r>
       <r>   -14.7657     1.3238    21.6017 </r>
       <r>   -14.6737     2.8301    21.8622 </r>
       <r>   -14.5816     8.4643    22.6414 </r>
       <r>   -14.4895     1.0122    22.7346 </r>
       <r>   -14.3975     0.1037    22.7442 </r>
       <r>   -14.3054     3.7430    23.0888 </r>
       <r>   -14.2134     4.1828    23.4738 </r>
       <r>   -14.1213     4.4069    23.8795 </r>
       <r>   -14.0292     0.9459    23.9666 </r>
       <r>   -13.9372     3.3534    24.2753 </r>
       <r>   -13.8451     1.8796    24.4484 </r>
       <r>   -13.7531     1.2661    24.5649 </r>
       <r>   -13.6610     3.9901    24.9322 </r>
       <r>   -13.5689     2.3240    25.1462 </r>
       <r>   -13.4769     4.2965    25.5417 </r>
       <r>   -13.3848     1.4432    25.6746 </r>
       <r>   -13.2928     2.4463    25.8998 </r>
       <r>   -13.2007     3.6732    26.2380 </r>
       <r>   -13.1087     0.0761    26.2450 </r>
       <r>   -13.0166     0.8626    26.3244 </r>
       <r>   -12.9245     9.2925    27.1798 </r>
       <r>   -12.8325     5.1214    27.6513 </r>
       <r>   -12.7404     3.2797    27.9532 </r>
       <r>   -12.6484     0.3694    27.9872 </r>
       <r>   -12.5563     2.1238    28.1828 </r>
       <r>   -12.4642     0.2709    28.2077 </r>
       <r>   -12.3722     1.5751    28.3527 </r>
       <r>   -12.2801     7.9118    29.0811 </r>
       <r>   -12.1881     8.7080    29.8827 </r>
       <r>   -12.0960     3.0075    30.1596 </r>
       <r>   -12.0039     0.0498    30.1642 </r>
       <r>   -11.9119     1.9108    30.3401 </r>
       <r>   -11.8198     3.3839    30.6516 </r>
       <r>   -11.7278     3.6598    30.9885 </r>
       <r>   -11.6357     6.4638    31.5836 </r>
       <r>   -11.5436     0.5329    31.6326 </r>
       <r>   -11.4516     0.2357    31.6543 </r>
       <r>   -11.3595     6.4674    32.2497 </r>
       <r>   -11.2675     6.0611    32.8077 </r>
       <r>   -11.1754     3.3854    33.1194 </r>
       <r>   -11.0833     5.5057    33.6262 </r>
       <r>   -10.9913     4.7426    34.0628 </r>
       <r>   -10.8992     2.8240    34.3228 </r>
       <r>   -10.8072     0.0406    34.3265 </r>
       <r>   -10.7151     0.0050    34.3270 </r>
       <r>   -10.6230     1.5793    34.4724 </r>
       <r>   -10.5310    10.9043    35.4762 </r>
       <r>   -10.4389    10.6356    36.4553 </r>
       <r>   -10.3469     2.8801    36.7205 </r>
       <r>   -10.2548     5.9377    37.2671 </r>
       <r>   -10.1627     2.0588    37.4566 </r>
       <r>   -10.0707     4.3097    37.8534 </r>
       <r>    -9.9786     4.9494    38.3090 </r>
       <r>    -9.8866    10.8055    39.3038 </r>
       <r>    -9.7945    10.0010    40.2245 </r>
       <r>    -9.7024     6.2530    40.8001 </r>
       <r>    -9.6104     8.7270    41.6035 </r>
       <r>    -9.5183     8.8889    42.4218 </r>
       <r>    -9.4263     5.5101    42.9291 </r>
       <r>    -9.3342     3.8158    43.2803 </r>
       <r>    -9.2421    10.3061    44.2291 </r>
       <r>    -9.1501    12.0092    45.3347 </r>
       <r>    -9.0580    14.8374    46.7006 </r>
       <r>    -8.9660     6.8591    47.3320 </r>
       <r>    -8.8739     3.1386    47.6210 </r>
       <r>    -8.7819    12.3002    48.7533 </r>
       <r>    -8.6898     6.8926    49.3879 </r>
       <r>    -8.5977     7.4502    50.0737 </r>
       <r>    -8.5057     7.0125    50.7193 </r>
       <r>    -8.4136     8.1051    51.4654 </r>
       <r>    -8.3216     3.3626    51.7750 </r>
       <r>    -8.2295     3.9966    52.1429 </r>
       <r>    -8.1374     5.6028    52.6587 </r>
       <r>    -8.0454    13.6757    53.9177 </r>
       <r>    -7.9533     5.3423    54.4095 </r>
       <r>    -7.8613     4.9596    54.8661 </r>
       <r>    -7.7692     1.2063    54.9772 </r>
       <r>    -7.6771     8.3438    55.7453 </r>
       <r>    -7.5851     7.0701    56.3961 </r>
       <r>    -7.4930     5.1226    56.8677 </r>
       <r>    -7.4010     2.9687    57.1410 </r>
       <r>    -7.3089     7.3341    57.8162 </r>
       <r>    -7.2168     2.3154    58.0294 </r>
       <r>    -7.1248     9.9742    58.9476 </r>
       <r>    -7.0327     7.7094    59.6573 </r>
       <r>    -6.9407     3.5783    59.9867 </r>
       <r>    -6.8486     3.5902    60.3172 </r>
       <r>    -6.7565     0.1491    60.3309 </r>
       <r>    -6.6645     4.3193    60.7286 </r>
       <r>    -6.5724    10.5257    61.6976 </r>
       <r>    -6.4804     8.8361    62.5110 </r>
       <r>    -6.3883     4.1123    62.8896 </r>
       <r>    -6.2962     4.0595    63.2633 </r>
       <r>    -6.2042     1.7662    63.4259 </r>
       <r>    -6.1121     4.9321    63.8799 </r>
       <r>    -6.0201     4.8847    64.3296 </r>
       <r>    -5.9280     2.8105    64.5884 </r>
       <r>    -5.8359     7.9278    65.3182 </r>
       <r>    -5.7439     7.1493    65.9763 </r>
       <r>    -5.6518     3.4700    66.2958 </r>
       <r>    -5.5598     3.7835    66.6441 </r>
       <r>    -5.4677     1.4826    66.7806 </r>
       <r>    -5.3756     3.1903    67.0743 </r>
       <r>    -5.2836     2.0874    67.2664 </r>
       <r>    -5.1915     1.5297    67.4073 </r>
       <r>    -5.0995     3.2448    67.7060 </r>
       <r>    -5.0074    15.5758    69.1399 </r>
       <r>    -4.9153     6.1795    69.7088 </r>
       <r>    -4.8233     0.0600    69.7143 </r>
       <r>    -4.7312     0.1412    69.7273 </r>
       <r>    -4.6392     2.0499    69.9160 </r>
       <r>    -4.5471     0.4723    69.9595 </r>
       <r>    -4.4551     1.4257    70.0907 </r>
       <r>    -4.3630     3.9518    70.4545 </r>
       <r>    -4.2709     5.0514    70.9196 </r>
       <r>    -4.1789     2.8311    71.1802 </r>
       <r>    -4.0868     0.0377    71.1837 </r>
       <r>    -3.9948     0.0109    71.1847 </r>
       <r>    -3.9027     1.2234    71.2973 </r>
       <r>    -3.8106     1.4069    71.4268 </r>
       <r>    -3.7186     0.0189    71.4286 </r>
       <r>    -3.6265     0.0147    71.4299 </r>
       <r>    -3.5345     2.1943    71.6319 </r>
       <r>    -3.4424     3.0608    71.9137 </r>
       <r>    -3.3503     0.0506    71.9184 </r>
       <r>    -3.2583     0.0000    71.9184 </r>
       <r>    -3.1662     0.0000    71.9184 </r>
       <r>    -3.0742     0.0000    71.9184 </r>
       <r>    -2.9821     0.0000    71.9184 </r>
       <r>    -2.8900     0.0005    71.9184 </r>
       <r>    -2.7980     0.2486    71.9413 </r>
       <r>    -2.7059     1.3349    72.0642 </r>
       <r>    -2.6139     0.1892    72.0816 </r>
       <r>    -2.5218     0.0003    72.0816 </r>
       <r>    -2.4297     0.0000    72.0816 </r>
       <r>    -2.3377     0.0000    72.0816 </r>
       <r>    -2.2456     0.0000    72.0816 </r>
       <r>    -2.1536     0.0001    72.0816 </r>
       <r>    -2.0615     0.3083    72.1100 </r>
       <r>    -1.9694     4.1213    72.4894 </r>
       <r>    -1.8774     0.8896    72.5713 </r>
       <r>    -1.7853     0.0575    72.5766 </r>
       <r>    -1.6933     1.7476    72.7375 </r>
       <r>    -1.6012     0.8525    72.8160 </r>
       <r>    -1.5091     0.0038    72.8163 </r>
       <r>    -1.4171     0.0036    72.8167 </r>
       <r>    -1.3250     1.9666    72.9977 </r>
       <r>    -1.2330    11.3388    74.0415 </r>
       <r>    -1.1409     2.8615    74.3050 </r>
       <r>    -1.0488     3.5012    74.6273 </r>
       <r>    -0.9568     5.7810    75.1595 </r>
       <r>    -0.8647     1.8446    75.3293 </r>
       <r>    -0.7727     4.2053    75.7164 </r>
       <r>    -0.6806     3.3753    76.0272 </r>
       <r>    -0.5885     4.7771    76.4669 </r>
       <r>    -0.4965     2.9955    76.7427 </r>
       <r>    -0.4044     3.7490    77.0879 </r>
       <r>    -0.3124     3.3279    77.3942 </r>
       <r>    -0.2203     5.1960    77.8726 </r>
       <r>    -0.1283     0.9374    77.9589 </r>
       <r>    -0.0362     0.0040    77.9592 </r>
       <r>     0.0559     0.5463    78.0095 </r>
       <r>     0.1479     4.2086    78.3970 </r>
       <r>     0.2400     1.5458    78.5393 </r>
       <r>     0.3320     4.1289    78.9194 </r>
       <r>     0.4241     3.6249    79.2531 </r>
       <r>     0.5162     3.1170    79.5400 </r>
       <r>     0.6082     3.6480    79.8758 </r>
       <r>     0.7003     1.3363    79.9989 </r>
       <r>     0.7923     5.8215    80.5348 </r>
       <r>     0.8844     5.9219    81.0800 </r>
       <r>     0.9765     1.4998    81.2180 </r>
       <r>     1.0685     4.2728    81.6114 </r>
       <r>     1.1606     1.8262    81.7795 </r>
       <r>     1.2526     5.6625    82.3008 </r>
       <r>     1.3447     2.1056    82.4946 </r>
       <r>     1.4368     6.9343    83.1330 </r>
       <r>     1.5288    13.9942    84.4213 </r>
       <r>     1.6209     4.5308    84.8384 </r>
       <r>     1.7129     4.6491    85.2664 </r>
       <r>     1.8050     3.3602    85.5757 </r>
       <r>     1.8971     8.7938    86.3853 </r>
       <r>     1.9891     8.9106    87.2056 </r>
       <r>     2.0812     9.1955    88.0521 </r>
       <r>     2.1732     6.8114    88.6792 </r>
       <r>     2.2653     7.0230    89.3257 </r>
       <r>     2.3574     7.2970    89.9975 </r>
       <r>     2.4494     5.1347    90.4702 </r>
       <r>     2.5415     4.3312    90.8689 </r>
       <r>     2.6335     2.9000    91.1359 </r>
       <r>     2.7256     2.1692    91.3356 </r>
       <r>     2.8177     4.5844    91.7576 </r>
       <r>     2.9097     2.5031    91.9881 </r>
       <r>     3.0018     0.1298    92.0000 </r>
       <r>     3.0938     0.0000    92.0000 </r>
       <r>     3.1859     0.0000    92.0000 </r>
       <r>     3.2780     0.0000    92.0000 </r>
       <r>     3.3700     0.0000    92.0000 </r>
       <r>     3.4621     0.0000    92.0000 </r>
       <r>     3.5541     0.0000    92.0000 </r>
       <r>     3.6462     0.0000    92.0000 </r>
       <r>     3.7383     0.0000    92.0000 </r>
       <r>     3.8303     0.0000    92.0000 </r>
       <r>     3.9224     0.0000    92.0000 </r>
       <r>     4.0144     0.0000    92.0000 </r>
       <r>     4.1065     0.0000    92.0000 </r>
      </set>
     </set>
    </array>
   </total>
  </dos>
 </calculation>
 <structure name="finalpos" >
  <crystal>
   <varray name="basis" >
    <v>       7.40170591       0.00000000       0.00000000 </v>
    <v>      -3.70085295       6.41006527       0.00000000 </v>
    <v>       0.00000000       0.00000000      20.00000000 </v>
   </varray>
   <i name="volume">    948.90835877 </i>
   <varray name="rec_basis" >
    <v>       0.13510399       0.07800233       0.00000000 </v>
    <v>       0.00000000       0.15600465       0.00000000 </v>
    <v>       0.00000000       0.00000000       0.05000000 </v>
   </varray>
  </crystal>
  <varray name="positions" >
   <v>       0.00078002       0.00156005       0.50000000 </v>
   <v>       0.33468437       0.00000000       0.50000000 </v>
   <v>       0.66666667       0.00000000       0.50000000 </v>
   <v>       0.00000000       0.33333333       0.50000000 </v>
   <v>       0.33333333       0.33333333       0.50000000 </v>
   <v>       0.66666667       0.33333333       0.50000000 </v>
   <v>       0.00000000       0.66666667       0.50000000 </v>
   <v>       0.33333333       0.66666667       0.50000000 </v>
   <v>       0.66666667       0.66666667       0.50000000 </v>
   <v>       0.22222222       0.11111111       0.50000000 </v>
   <v>       0.55555556       0.11111111       0.50000000 </v>
   <v>       0.88888889       0.11111111       0.50000000 </v>
   <v>       0.22222222       0.44444444       0.50000000 </v>
   <v>       0.55555556       0.44444444       0.50000000 </v>
   <v>       0.88888889       0.44444444       0.50000000 </v>
   <v>       0.22222222       0.77777778       0.50000000 </v>
   <v>       0.55555556       0.77777778       0.50000000 </v>
   <v>       0.88888889       0.77777778       0.50000000 </v>
  </varray>
 </structure>
</modeling>
