<?xml version="1.0" encoding="ISO-8859-1"?>
<modeling>
 <generator>
  <i name="program" type="string">vasp </i>
  <i name="version" type="string">6.4.1  </i>
  <i name="subversion" type="string">05Apr23 (build Feb 12 2025 00:37:39) complex                          parallel </i>
  <i name="platform" type="string">LinuxIFC </i>
  <i name="date" type="string">2025 02 14 </i>
  <i name="time" type="string">05:17:26 </i>
 </generator>
 <incar>
  <i type="string" name="SYSTEM">SCF</i>
  <i type="int" name="ISTART">     0</i>
  <i type="int" name="ICHARG">     2</i>
  <i type="int" name="NELM">    60</i>
  <i type="int" name="NELMIN">     6</i>
  <i name="EDIFF">      0.00000100</i>
  <i name="EDIFFG">     -0.00000100</i>
  <i name="ENCUT">    600.00000000</i>
  <i type="string" name="LREAL">Auto</i>
  <i type="int" name="ISMEAR">     0</i>
  <i name="SIGMA">      0.05000000</i>
  <i type="logical" name="LWAVE"> F  </i>
  <i type="logical" name="LCHARG"> F  </i>
 </incar>
 <primitive_cell>
  <structure name="primitive_cell" >
   <crystal>
    <varray name="basis" >
     <v>       7.40170591       0.00000000       0.00000000 </v>
     <v>      -3.70085295       6.41006527       0.00000000 </v>
     <v>       0.00000000       0.00000000      20.00000000 </v>
    </varray>
    <i name="volume">    948.90835877 </i>
    <varray name="rec_basis" >
     <v>       0.13510399       0.07800233       0.00000000 </v>
     <v>       0.00000000       0.15600465       0.00000000 </v>
     <v>       0.00000000       0.00000000       0.05000000 </v>
    </varray>
   </crystal>
   <varray name="positions" >
    <v>       0.00000000       0.00000000       0.50050000 </v>
    <v>       0.33333333       0.00000000       0.50000000 </v>
    <v>       0.66666667       0.00000000       0.50000000 </v>
    <v>       1.00000000       0.33333333       0.50000000 </v>
    <v>       0.33333333       0.33333333       0.50000000 </v>
    <v>       0.66666667       0.33333333       0.50000000 </v>
    <v>       1.00000000       0.66666667       0.50000000 </v>
    <v>       0.33333333       0.66666667       0.50000000 </v>
    <v>       0.66666667       0.66666667       0.50000000 </v>
    <v>       0.22300225       0.11267116       0.50000000 </v>
    <v>       0.55555556       0.11111111       0.50000000 </v>
    <v>       0.88888889       0.11111111       0.50000000 </v>
    <v>       0.22222222       0.44444444       0.50000000 </v>
    <v>       0.55555556       0.44444444       0.50000000 </v>
    <v>       0.88888889       0.44444444       0.50000000 </v>
    <v>       0.22222222       0.77777778       0.50000000 </v>
    <v>       0.55555556       0.77777778       0.50000000 </v>
    <v>       0.88888889       0.77777778       0.50000000 </v>
   </varray>
  </structure>
  <varray name="primitive_index" >
   <v type="int" >        1 </v>
   <v type="int" >        2 </v>
   <v type="int" >        3 </v>
   <v type="int" >        4 </v>
   <v type="int" >        5 </v>
   <v type="int" >        6 </v>
   <v type="int" >        7 </v>
   <v type="int" >        8 </v>
   <v type="int" >        9 </v>
   <v type="int" >       10 </v>
   <v type="int" >       11 </v>
   <v type="int" >       12 </v>
   <v type="int" >       13 </v>
   <v type="int" >       14 </v>
   <v type="int" >       15 </v>
   <v type="int" >       16 </v>
   <v type="int" >       17 </v>
   <v type="int" >       18 </v>
  </varray>
 </primitive_cell>
 <kpoints>
  <generation param="Gamma">
   <v type="int" name="divisions">       7        7        1 </v>
   <v name="usershift">      0.00000000       0.00000000       0.00000000 </v>
   <v name="genvec1">      0.14285714       0.00000000       0.00000000 </v>
   <v name="genvec2">      0.00000000       0.14285714       0.00000000 </v>
   <v name="genvec3">      0.00000000       0.00000000       1.00000000 </v>
   <v name="shift">      0.00000000       0.00000000       0.00000000 </v>
  </generation>
  <varray name="kpointlist" >
   <v>       0.00000000       0.00000000       0.00000000 </v>
   <v>       0.14285714       0.00000000       0.00000000 </v>
   <v>       0.00000000       0.14285714       0.00000000 </v>
   <v>      -0.14285714       0.14285714       0.00000000 </v>
   <v>       0.28571429       0.00000000       0.00000000 </v>
   <v>       0.00000000       0.28571429       0.00000000 </v>
   <v>      -0.28571429       0.28571429       0.00000000 </v>
   <v>       0.42857143       0.00000000       0.00000000 </v>
   <v>       0.00000000       0.42857143       0.00000000 </v>
   <v>      -0.42857143       0.42857143       0.00000000 </v>
   <v>       0.14285714       0.14285714       0.00000000 </v>
   <v>      -0.14285714       0.28571429       0.00000000 </v>
   <v>      -0.28571429       0.14285714       0.00000000 </v>
   <v>       0.28571429       0.14285714       0.00000000 </v>
   <v>      -0.14285714       0.42857143       0.00000000 </v>
   <v>      -0.42857143       0.28571429       0.00000000 </v>
   <v>      -0.28571429       0.42857143       0.00000000 </v>
   <v>       0.14285714       0.28571429       0.00000000 </v>
   <v>       0.42857143      -0.14285714       0.00000000 </v>
   <v>       0.42857143       0.14285714       0.00000000 </v>
   <v>      -0.14285714      -0.42857143       0.00000000 </v>
   <v>       0.42857143       0.42857143       0.00000000 </v>
   <v>       0.28571429       0.28571429       0.00000000 </v>
   <v>      -0.28571429      -0.42857143       0.00000000 </v>
   <v>       0.42857143       0.28571429       0.00000000 </v>
  </varray>
  <varray name="weights" >
   <v>       0.02040816 </v>
   <v>       0.04081633 </v>
   <v>       0.04081633 </v>
   <v>       0.04081633 </v>
   <v>       0.04081633 </v>
   <v>       0.04081633 </v>
   <v>       0.04081633 </v>
   <v>       0.04081633 </v>
   <v>       0.04081633 </v>
   <v>       0.04081633 </v>
   <v>       0.04081633 </v>
   <v>       0.04081633 </v>
   <v>       0.04081633 </v>
   <v>       0.04081633 </v>
   <v>       0.04081633 </v>
   <v>       0.04081633 </v>
   <v>       0.04081633 </v>
   <v>       0.04081633 </v>
   <v>       0.04081633 </v>
   <v>       0.04081633 </v>
   <v>       0.04081633 </v>
   <v>       0.04081633 </v>
   <v>       0.04081633 </v>
   <v>       0.04081633 </v>
   <v>       0.04081633 </v>
  </varray>
 </kpoints>
 <parameters>
  <separator name="general" >
   <i type="string" name="SYSTEM">SCF</i>
   <i type="logical" name="LCOMPAT"> F  </i>
  </separator>
  <separator name="electronic" >
   <i type="string" name="PREC">normal</i>
   <i name="ENMAX">    600.00000000</i>
   <i name="ENAUG">    644.87300000</i>
   <i name="EDIFF">      0.00000100</i>
   <i type="int" name="IALGO">    38</i>
   <i type="int" name="IWAVPR">    10</i>
   <i type="int" name="NBANDS">    46</i>
   <i type="int" name="NBANDSLOW">    -1</i>
   <i type="int" name="NBANDSHIGH">    -1</i>
   <i name="NELECT">     72.00000000</i>
   <i type="int" name="TURBO">     0</i>
   <i type="int" name="IRESTART">     0</i>
   <i type="int" name="NREBOOT">     0</i>
   <i type="int" name="NMIN">     0</i>
   <i name="EREF">      0.00000000</i>
   <separator name="electronic smearing" >
    <i type="int" name="ISMEAR">     0</i>
    <i name="SIGMA">      0.05000000</i>
    <i name="KSPACING">      0.50000000</i>
    <i type="logical" name="KGAMMA"> T  </i>
    <i type="logical" name="KBLOWUP"> T  </i>
   </separator>
   <separator name="electronic projectors" >
    <i type="logical" name="LREAL"> T  </i>
    <v name="ROPT">     -0.00050000</v>
    <i type="int" name="LMAXPAW">  -100</i>
    <i type="int" name="LMAXMIX">     2</i>
    <i type="logical" name="NLSPLINE"> F  </i>
   </separator>
   <separator name="electronic startup" >
    <i type="int" name="ISTART">     0</i>
    <i type="int" name="ICHARG">     2</i>
    <i type="int" name="INIWAV">     1</i>
   </separator>
   <separator name="electronic spin" >
    <i type="int" name="ISPIN">     1</i>
    <i type="logical" name="LNONCOLLINEAR"> F  </i>
    <v name="MAGMOM">      1.00000000      1.00000000      1.00000000      1.00000000      1.00000000      1.00000000      1.00000000      1.00000000      1.00000000      1.00000000      1.00000000      1.00000000      1.00000000      1.00000000      1.00000000      1.00000000      1.00000000      1.00000000</v>
    <i name="NUPDOWN">     -1.00000000</i>
    <i type="logical" name="LSORBIT"> F  </i>
    <v name="SAXIS">      0.00000000      0.00000000      1.00000000</v>
    <i type="logical" name="LSPIRAL"> F  </i>
    <v name="QSPIRAL">      0.00000000      0.00000000      0.00000000</v>
    <i type="logical" name="LZEROZ"> F  </i>
   </separator>
   <separator name="electronic exchange-correlation" >
    <i type="logical" name="LASPH"> F  </i>
    <i type="logical" name="LMETAGGA"> F  </i>
   </separator>
   <separator name="electronic convergence" >
    <i type="int" name="NELM">    60</i>
    <i type="int" name="NELMDL">    -5</i>
    <i type="int" name="NELMIN">     6</i>
    <i name="ENINI">    600.00000000</i>
    <separator name="electronic convergence detail" >
     <i type="logical" name="LDIAG"> T  </i>
     <i type="logical" name="LSUBROT"> F  </i>
     <i name="WEIMIN">      0.00000000</i>
     <i name="EBREAK">      0.00000000</i>
     <i name="DEPER">      0.30000000</i>
     <i type="int" name="NRMM">     4</i>
     <i name="TIME">      0.40000000</i>
    </separator>
   </separator>
   <separator name="electronic mixer" >
    <i name="AMIX">      0.40000000</i>
    <i name="BMIX">      1.00000000</i>
    <i name="AMIN">      0.10000000</i>
    <i name="AMIX_MAG">      1.60000000</i>
    <i name="BMIX_MAG">      1.00000000</i>
    <separator name="electronic mixer details" >
     <i type="int" name="IMIX">     4</i>
     <i type="logical" name="MIXFIRST"> F  </i>
     <i type="int" name="MAXMIX">   -45</i>
     <i name="WC">    100.00000000</i>
     <i type="int" name="INIMIX">     1</i>
     <i type="int" name="MIXPRE">     1</i>
     <i type="int" name="MREMOVE">     5</i>
    </separator>
   </separator>
   <separator name="electronic dipolcorrection" >
    <i type="logical" name="LDIPOL"> F  </i>
    <i type="logical" name="LMONO"> F  </i>
    <i type="int" name="IDIPOL">     0</i>
    <i name="EPSILON">      1.00000000</i>
    <v name="DIPOL">   -100.00000000   -100.00000000   -100.00000000</v>
    <i name="EFIELD">      0.00000000</i>
   </separator>
  </separator>
  <separator name="grids" >
   <i type="int" name="NGX">    48</i>
   <i type="int" name="NGY">    48</i>
   <i type="int" name="NGZ">   120</i>
   <i type="int" name="NGXF">    96</i>
   <i type="int" name="NGYF">    96</i>
   <i type="int" name="NGZF">   240</i>
   <i type="logical" name="ADDGRID"> F  </i>
  </separator>
  <separator name="ionic" >
   <i type="int" name="NSW">     0</i>
   <i type="int" name="IBRION">    -1</i>
   <i type="int" name="MDALGO">     0</i>
   <i type="int" name="ISIF">     2</i>
   <i name="PSTRESS">      0.00000000</i>
   <i name="EDIFFG">     -0.00000100</i>
   <i type="int" name="NFREE">     0</i>
   <i name="POTIM">      0.50000000</i>
   <i name="SMASS">     -3.00000000</i>
   <i name="SCALEE">      1.00000000</i>
  </separator>
  <separator name="ionic md" >
   <i name="TEBEG">      0.00010000</i>
   <i name="TEEND">      0.00010000</i>
   <i type="int" name="NBLOCK">     1</i>
   <i type="int" name="KBLOCK">     1</i>
   <i type="int" name="NPACO">   256</i>
   <i name="APACO">     10.00000000</i>
  </separator>
  <separator name="symmetry" >
   <i type="int" name="ISYM">     2</i>
   <i name="SYMPREC">      0.00001000</i>
  </separator>
  <separator name="dos" >
   <i type="int" name="LORBIT">     0</i>
   <v name="RWIGS">     -1.00000000</v>
   <i type="int" name="NEDOS">   301</i>
   <i name="EMIN">     10.00000000</i>
   <i name="EMAX">    -10.00000000</i>
   <i name="EFERMI">      0.00000000</i>
  </separator>
  <separator name="writing" >
   <i type="int" name="NWRITE">     2</i>
   <i type="logical" name="LWAVE"> F  </i>
   <i type="logical" name="LDOWNSAMPLE"> F  </i>
   <i type="logical" name="LCHARG"> F  </i>
   <i type="logical" name="LPARD"> F  </i>
   <i type="logical" name="LVTOT"> F  </i>
   <i type="logical" name="LVHAR"> F  </i>
   <i type="logical" name="LELF"> F  </i>
   <i type="logical" name="LOPTICS"> F  </i>
   <v name="STM">      0.00000000      0.00000000      0.00000000      0.00000000      0.00000000      0.00000000      0.00000000</v>
  </separator>
  <separator name="performance" >
   <i type="int" name="NPAR">     2</i>
   <i type="int" name="NSIM">     4</i>
   <i type="int" name="NBLK">    -1</i>
   <i type="logical" name="LPLANE"> T  </i>
   <i type="logical" name="LSCALAPACK"> T  </i>
   <i type="logical" name="LSCAAWARE"> F  </i>
   <i type="logical" name="LSCALU"> F  </i>
   <i type="logical" name="LASYNC"> F  </i>
   <i type="logical" name="LORBITALREAL"> F  </i>
  </separator>
  <separator name="miscellaneous" >
   <i type="int" name="IDIOT">     3</i>
   <i type="int" name="PHON_NSTRUCT">    -1</i>
   <i type="logical" name="LMUSIC"> F  </i>
   <v name="POMASS">     12.01100000</v>
   <v name="DARWINR">      0.00000000</v>
   <v name="DARWINV">      1.00000000</v>
   <i type="logical" name="LCORR"> T  </i>
  </separator>
  <i type="logical" name="GGA_COMPAT"> T  </i>
  <i type="logical" name="LBERRY"> F  </i>
  <i type="int" name="ICORELEVEL">     0</i>
  <i type="logical" name="LDAU"> F  </i>
  <i type="int" name="I_CONSTRAINED_M">     0</i>
  <separator name="electronic exchange-correlation" >
   <i type="string" name="GGA">--</i>
   <i type="int" name="VOSKOWN">     0</i>
   <i type="logical" name="LHFCALC"> F  </i>
   <i type="string" name="PRECFOCK"></i>
   <i type="logical" name="LSYMGRAD"> F  </i>
   <i type="logical" name="LHFONE"> F  </i>
   <i type="logical" name="LRHFCALC"> F  </i>
   <i type="logical" name="LTHOMAS"> F  </i>
   <i type="logical" name="LMODELHF"> F  </i>
   <i type="logical" name="LFOCKACE"> F  </i>
   <i name="ENCUT4O">     -1.00000000</i>
   <i type="int" name="EXXOEP">     0</i>
   <i type="int" name="FOURORBIT">     0</i>
   <i name="AEXX">      0.00000000</i>
   <i name="HFALPHA">      0.00000000</i>
   <i name="MCALPHA">      0.00000000</i>
   <i name="ALDAX">      1.00000000</i>
   <i name="AGGAX">      1.00000000</i>
   <i name="ALDAC">      1.00000000</i>
   <i name="AGGAC">      1.00000000</i>
   <i type="int" name="NKREDX">     1</i>
   <i type="int" name="NKREDY">     1</i>
   <i type="int" name="NKREDZ">     1</i>
   <i type="logical" name="SHIFTRED"> F  </i>
   <i type="logical" name="ODDONLY"> F  </i>
   <i type="logical" name="EVENONLY"> F  </i>
   <i type="int" name="LMAXFOCK">     0</i>
   <i type="int" name="NMAXFOCKAE">     0</i>
   <i type="logical" name="LFOCKAEDFT"> F  </i>
   <i name="HFSCREEN">      0.00000000</i>
   <i name="HFSCREENC">      0.00000000</i>
   <i type="int" name="NBANDSGWLOW">     0</i>
  </separator>
  <separator name="vdW DFT" >
   <i type="logical" name="LUSE_VDW"> F  </i>
   <i type="int" name="IVDW_NL">     1</i>
   <i type="logical" name="LSPIN_VDW"> F  </i>
   <i name="Zab_VDW">     -0.84910000</i>
   <i name="PARAM1">      0.12340000</i>
   <i name="PARAM2">      1.00000000</i>
   <i name="PARAM3">      0.00000000</i>
  </separator>
  <separator name="model GW" >
   <i type="int" name="MODEL_GW">     0</i>
   <i name="MODEL_EPS0">     31.63027863</i>
   <i name="MODEL_ALPHA">      1.00000000</i>
  </separator>
  <separator name="linear response parameters" >
   <i type="logical" name="LEPSILON"> F  </i>
   <i type="logical" name="LRPA"> F  </i>
   <i type="logical" name="LNABLA"> F  </i>
   <i type="logical" name="LVEL"> F  </i>
   <i name="CSHIFT">      0.10000000</i>
   <i name="OMEGAMAX">     -1.00000000</i>
   <i name="DEG_THRESHOLD">      0.00200000</i>
   <i name="RTIME">     -0.10000000</i>
   <i name="WPLASMAI">      0.00000000</i>
   <v name="DFIELD">      0.00000000      0.00000000      0.00000000</v>
   <v name="WPLASMA">      0.00000000      0.00000000      0.00000000      0.00000000      0.00000000      0.00000000      0.00000000      0.00000000      0.00000000</v>
  </separator>
  <separator name="orbital magnetization" >
   <i type="logical" name="NUCIND"> F  </i>
   <v name="MAGPOS">      0.00000000      0.00000000      0.00000000</v>
   <i type="logical" name="LNICSALL"> T  </i>
   <i type="logical" name="ORBITALMAG"> F  </i>
   <i type="logical" name="LMAGBLOCH"> F  </i>
   <i type="logical" name="LCHIMAG"> F  </i>
   <i type="logical" name="LGAUGE"> T  </i>
   <i type="int" name="MAGATOM">     0</i>
   <v name="MAGDIPOL">      0.00000000      0.00000000      0.00000000</v>
   <v name="AVECCONST">      0.00000000      0.00000000      0.00000000</v>
  </separator>
  <separator name="response functions" >
   <i type="logical" name="LALL_IN_ONE"> F  </i>
   <i type="int" name="IALL_IN_ONE">    -1</i>
   <i type="int" name="NBANDS_WAVE">    -1</i>
   <i type="logical" name="LFINITE_TEMPERATURE"> F  </i>
   <i type="logical" name="LADDER"> F  </i>
   <i type="logical" name="LRPAFORCE"> F  </i>
   <i type="logical" name="LFXC"> F  </i>
   <i type="logical" name="LHARTREE"> T  </i>
   <i type="int" name="IBSE">     0</i>
   <v type="int" name="KPOINT">    -1     0     0     0</v>
   <i type="logical" name="LTCTC"> F  </i>
   <i type="logical" name="LTCTE"> F  </i>
   <i type="logical" name="LTETE"> F  </i>
   <i type="logical" name="LTRIPLET"> F  </i>
   <i type="logical" name="LFXCEPS"> F  </i>
   <i type="logical" name="LFXHEG"> F  </i>
   <i type="int" name="NATURALO">     2</i>
   <i type="logical" name="LHOLEGF"> F  </i>
   <i type="logical" name="L2ORDER"> F  </i>
   <i type="logical" name="LDMP1"> F  </i>
   <i type="logical" name="LMP2LT"> F  </i>
   <i type="logical" name="LSMP2LT"> F  </i>
   <i type="logical" name="LGWLF"> F  </i>
   <i name="ENCUTGW">     -1.60000002</i>
   <i name="ENCUTGWSOFT">     -1.60000002</i>
   <i name="ENCUTLF">     -1.00000000</i>
   <i type="logical" name="LESF_SPLINES"> F  </i>
   <i type="int" name="LMAXMP2">    -1</i>
   <i name="SCISSOR">      0.00000000</i>
   <i type="int" name="NOMEGA">     0</i>
   <i type="int" name="NOMEGAR">     0</i>
   <i type="int" name="NBANDSGW">    -1</i>
   <i type="int" name="NBANDSO">    -1</i>
   <i type="int" name="NBANDSV">    -1</i>
   <i type="int" name="NELMGW">     1</i>
   <i type="int" name="NELMHF">     1</i>
   <i type="int" name="DIM">     3</i>
   <i type="int" name="IESPILON">     4</i>
   <i type="int" name="ANTIRES">     0</i>
   <i name="OMEGAMAX">    -30.00000000</i>
   <i name="OMEGAMIN">    -30.00000000</i>
   <i name="OMEGATL">   -200.00000000</i>
   <i type="int" name="OMEGAGRID">     0</i>
   <i name="CSHIFT">     -0.10000000</i>
   <i type="logical" name="LSELFENERGY"> F  </i>
   <i type="logical" name="LSPECTRAL"> F  </i>
   <i type="logical" name="LSPECTRALGW"> F  </i>
   <i type="logical" name="LSINGLES"> F  </i>
   <i type="logical" name="LFERMIGW"> F  </i>
   <i type="logical" name="ODDONLYGW"> F  </i>
   <i type="logical" name="EVENONLYGW"> F  </i>
   <i type="int" name="NKREDLFX">     1</i>
   <i type="int" name="NKREDLFY">     1</i>
   <i type="int" name="NKREDLFZ">     1</i>
   <i type="int" name="MAXMEM">  2800</i>
   <i type="int" name="TELESCOPE">     0</i>
   <i type="int" name="NTAUPAR">    -1</i>
   <i type="int" name="NOMEGAPAR">    -1</i>
   <i name="DAMP_NEWTON">      0.80000001</i>
   <i name="LAMBDA">      1.00000000</i>
  </separator>
  <separator name="External order field" >
   <i name="OFIELD_KAPPA">      0.00000000</i>
   <v name="OFIELD_K">      0.00000000      0.00000000      0.00000000</v>
   <i name="OFIELD_Q6_NEAR">      0.00000000</i>
   <i name="OFIELD_Q6_FAR">      0.00000000</i>
   <i name="OFIELD_A">      0.00000000</i>
  </separator>
  <separator name="optional k-points parameters" >
   <i type="int" name="KPOINTS_OPT_MODE">     1</i>
   <i type="logical" name="LKPOINTS_OPT"> F  </i>
  </separator>
 </parameters>
 <atominfo>
  <atoms>      18 </atoms>
  <types>       1 </types>
  <array name="atoms" >
   <dimension dim="1">ion</dimension>
   <field type="string">element</field>
   <field type="int">atomtype</field>
   <set>
    <rc><c>C </c><c>   1</c></rc>
    <rc><c>C </c><c>   1</c></rc>
    <rc><c>C </c><c>   1</c></rc>
    <rc><c>C </c><c>   1</c></rc>
    <rc><c>C </c><c>   1</c></rc>
    <rc><c>C </c><c>   1</c></rc>
    <rc><c>C </c><c>   1</c></rc>
    <rc><c>C </c><c>   1</c></rc>
    <rc><c>C </c><c>   1</c></rc>
    <rc><c>C </c><c>   1</c></rc>
    <rc><c>C </c><c>   1</c></rc>
    <rc><c>C </c><c>   1</c></rc>
    <rc><c>C </c><c>   1</c></rc>
    <rc><c>C </c><c>   1</c></rc>
    <rc><c>C </c><c>   1</c></rc>
    <rc><c>C </c><c>   1</c></rc>
    <rc><c>C </c><c>   1</c></rc>
    <rc><c>C </c><c>   1</c></rc>
   </set>
  </array>
  <array name="atomtypes" >
   <dimension dim="1">type</dimension>
   <field type="int">atomspertype</field>
   <field type="string">element</field>
   <field>mass</field>
   <field>valence</field>
   <field type="string">pseudopotential</field>
   <set>
    <rc><c>  18</c><c>C </c><c>     12.01100000</c><c>      4.00000000</c><c>  PAW_PBE C 08Apr2002                   </c></rc>
   </set>
  </array>
 </atominfo>
 <structure name="initialpos" >
  <crystal>
   <varray name="basis" >
    <v>       7.40170591       0.00000000       0.00000000 </v>
    <v>      -3.70085295       6.41006527       0.00000000 </v>
    <v>       0.00000000       0.00000000      20.00000000 </v>
   </varray>
   <i name="volume">    948.90835877 </i>
   <varray name="rec_basis" >
    <v>       0.13510399       0.07800233       0.00000000 </v>
    <v>       0.00000000       0.15600465       0.00000000 </v>
    <v>       0.00000000       0.00000000       0.05000000 </v>
   </varray>
  </crystal>
  <varray name="positions" >
   <v>       0.00000000       0.00000000       0.50050000 </v>
   <v>       0.33333333       0.00000000       0.50000000 </v>
   <v>       0.66666667       0.00000000       0.50000000 </v>
   <v>       0.00000000       0.33333333       0.50000000 </v>
   <v>       0.33333333       0.33333333       0.50000000 </v>
   <v>       0.66666667       0.33333333       0.50000000 </v>
   <v>       0.00000000       0.66666667       0.50000000 </v>
   <v>       0.33333333       0.66666667       0.50000000 </v>
   <v>       0.66666667       0.66666667       0.50000000 </v>
   <v>       0.22300225       0.11267116       0.50000000 </v>
   <v>       0.55555556       0.11111111       0.50000000 </v>
   <v>       0.88888889       0.11111111       0.50000000 </v>
   <v>       0.22222222       0.44444444       0.50000000 </v>
   <v>       0.55555556       0.44444444       0.50000000 </v>
   <v>       0.88888889       0.44444444       0.50000000 </v>
   <v>       0.22222222       0.77777778       0.50000000 </v>
   <v>       0.55555556       0.77777778       0.50000000 </v>
   <v>       0.88888889       0.77777778       0.50000000 </v>
  </varray>
 </structure>
 <calculation>
  <scstep>
   <time name="dav">    5.92    4.96</time>
   <time name="total">    6.01    5.05</time>
   <energy>
    <i name="alphaZ">     28.04858418 </i>
    <i name="ewald">  11638.84073858 </i>
    <i name="hartreedc"> -13553.15834034 </i>
    <i name="XCdc">    237.17732040 </i>
    <i name="pawpsdc">   1953.39683484 </i>
    <i name="pawaedc">  -1963.64613940 </i>
    <i name="eentropy">     -0.00854030 </i>
    <i name="bandstr">   -257.76184683 </i>
    <i name="atom">   2648.70517965 </i>
    <i name="e_fr_energy">    731.59379079 </i>
    <i name="e_wo_entrp">    731.60233109 </i>
    <i name="e_0_energy">    731.59806094 </i>
   </energy>
  </scstep>
  <scstep>
   <time name="dav">    7.90    8.20</time>
   <time name="total">    7.90    8.20</time>
   <energy>
    <i name="e_fr_energy">    -23.91520157 </i>
    <i name="e_wo_entrp">    -23.91482394 </i>
    <i name="e_0_energy">    -23.91501276 </i>
   </energy>
  </scstep>
  <scstep>
   <time name="dav">    6.41    6.65</time>
   <time name="total">    6.41    6.65</time>
   <energy>
    <i name="e_fr_energy">   -172.28818910 </i>
    <i name="e_wo_entrp">   -172.28708473 </i>
    <i name="e_0_energy">   -172.28763692 </i>
   </energy>
  </scstep>
  <scstep>
   <time name="dav">    6.30    6.54</time>
   <time name="total">    6.30    6.54</time>
   <energy>
    <i name="e_fr_energy">   -177.34869030 </i>
    <i name="e_wo_entrp">   -177.34656939 </i>
    <i name="e_0_energy">   -177.34762984 </i>
   </energy>
  </scstep>
  <scstep>
   <time name="dav">    7.21    6.29</time>
   <time name="total">    7.46    6.55</time>
   <energy>
    <i name="e_fr_energy">   -177.48546532 </i>
    <i name="e_wo_entrp">   -177.48331154 </i>
    <i name="e_0_energy">   -177.48438843 </i>
   </energy>
  </scstep>
  <scstep>
   <time name="dav">    5.90    6.12</time>
   <time name="total">    6.24    6.48</time>
   <energy>
    <i name="e_fr_energy">   -169.31814781 </i>
    <i name="e_wo_entrp">   -169.31595712 </i>
    <i name="e_0_energy">   -169.31705247 </i>
   </energy>
  </scstep>
  <scstep>
   <time name="dav">    5.92    6.14</time>
   <time name="total">    6.27    6.51</time>
   <energy>
    <i name="e_fr_energy">   -166.15057130 </i>
    <i name="e_wo_entrp">   -166.14836440 </i>
    <i name="e_0_energy">   -166.14946785 </i>
   </energy>
  </scstep>
  <scstep>
   <time name="dav">    6.19    6.43</time>
   <time name="total">    6.53    6.79</time>
   <energy>
    <i name="e_fr_energy">   -166.08764806 </i>
    <i name="e_wo_entrp">   -166.08544754 </i>
    <i name="e_0_energy">   -166.08654780 </i>
   </energy>
  </scstep>
  <scstep>
   <time name="dav">    6.55    6.81</time>
   <time name="total">    6.89    7.16</time>
   <energy>
    <i name="e_fr_energy">   -166.07485803 </i>
    <i name="e_wo_entrp">   -166.07265573 </i>
    <i name="e_0_energy">   -166.07375688 </i>
   </energy>
  </scstep>
  <scstep>
   <time name="dav">    5.73    4.75</time>
   <time name="total">    6.08    5.11</time>
   <energy>
    <i name="e_fr_energy">   -166.05617392 </i>
    <i name="e_wo_entrp">   -166.05397037 </i>
    <i name="e_0_energy">   -166.05507214 </i>
   </energy>
  </scstep>
  <scstep>
   <time name="dav">    5.86    6.06</time>
   <time name="total">    6.21    6.42</time>
   <energy>
    <i name="e_fr_energy">   -166.05992153 </i>
    <i name="e_wo_entrp">   -166.05771905 </i>
    <i name="e_0_energy">   -166.05882029 </i>
   </energy>
  </scstep>
  <scstep>
   <time name="dav">    5.68    5.91</time>
   <time name="total">    6.02    6.27</time>
   <energy>
    <i name="e_fr_energy">   -166.06457139 </i>
    <i name="e_wo_entrp">   -166.06236896 </i>
    <i name="e_0_energy">   -166.06347017 </i>
   </energy>
  </scstep>
  <scstep>
   <time name="dav">    5.99    6.26</time>
   <time name="total">    6.34    6.62</time>
   <energy>
    <i name="e_fr_energy">   -166.06883463 </i>
    <i name="e_wo_entrp">   -166.06663171 </i>
    <i name="e_0_energy">   -166.06773317 </i>
   </energy>
  </scstep>
  <scstep>
   <time name="dav">    5.65    5.89</time>
   <time name="total">    5.99    6.24</time>
   <energy>
    <i name="e_fr_energy">   -166.07246856 </i>
    <i name="e_wo_entrp">   -166.07026571 </i>
    <i name="e_0_energy">   -166.07136713 </i>
   </energy>
  </scstep>
  <scstep>
   <time name="dav">    5.95    4.94</time>
   <time name="total">    6.29    5.30</time>
   <energy>
    <i name="e_fr_energy">   -166.07369122 </i>
    <i name="e_wo_entrp">   -166.07148838 </i>
    <i name="e_0_energy">   -166.07258980 </i>
   </energy>
  </scstep>
  <scstep>
   <time name="dav">    6.03    6.25</time>
   <time name="total">    6.38    6.62</time>
   <energy>
    <i name="e_fr_energy">   -166.07386752 </i>
    <i name="e_wo_entrp">   -166.07166468 </i>
    <i name="e_0_energy">   -166.07276610 </i>
   </energy>
  </scstep>
  <scstep>
   <time name="dav">    5.25    5.45</time>
   <time name="total">    5.60    5.82</time>
   <energy>
    <i name="e_fr_energy">   -166.07407915 </i>
    <i name="e_wo_entrp">   -166.07187639 </i>
    <i name="e_0_energy">   -166.07297777 </i>
   </energy>
  </scstep>
  <scstep>
   <time name="dav">    5.16    5.36</time>
   <time name="total">    5.51    5.72</time>
   <energy>
    <i name="e_fr_energy">   -166.07411692 </i>
    <i name="e_wo_entrp">   -166.07191410 </i>
    <i name="e_0_energy">   -166.07301551 </i>
   </energy>
  </scstep>
  <scstep>
   <time name="dav">    5.09    5.29</time>
   <time name="total">    5.43    5.64</time>
   <energy>
    <i name="e_fr_energy">   -166.07415200 </i>
    <i name="e_wo_entrp">   -166.07194917 </i>
    <i name="e_0_energy">   -166.07305058 </i>
   </energy>
  </scstep>
  <scstep>
   <time name="dav">    4.33    4.50</time>
   <time name="total">    4.68    4.86</time>
   <energy>
    <i name="e_fr_energy">   -166.07417258 </i>
    <i name="e_wo_entrp">   -166.07196978 </i>
    <i name="e_0_energy">   -166.07307118 </i>
   </energy>
  </scstep>
  <scstep>
   <time name="dav">    3.99    2.96</time>
   <time name="total">    4.33    3.32</time>
   <energy>
    <i name="e_fr_energy">   -166.07418060 </i>
    <i name="e_wo_entrp">   -166.07197779 </i>
    <i name="e_0_energy">   -166.07307919 </i>
   </energy>
  </scstep>
  <scstep>
   <time name="dav">    3.93    4.08</time>
   <time name="total">    4.27    4.43</time>
   <energy>
    <i name="e_fr_energy">   -166.07418360 </i>
    <i name="e_wo_entrp">   -166.07198080 </i>
    <i name="e_0_energy">   -166.07308220 </i>
   </energy>
  </scstep>
  <scstep>
   <time name="dav">    4.25    4.41</time>
   <time name="total">    4.33    4.49</time>
   <energy>
    <i name="alphaZ">     28.04858418 </i>
    <i name="ewald">  11638.84073858 </i>
    <i name="hartreedc"> -13861.49373221 </i>
    <i name="XCdc">    247.81378984 </i>
    <i name="pawpsdc">   7452.81426883 </i>
    <i name="pawaedc">  -7465.07760643 </i>
    <i name="eentropy">     -0.00220281 </i>
    <i name="bandstr">   -855.72320347 </i>
    <i name="atom">   2648.70517965 </i>
    <i name="e_fr_energy">   -166.07418384 </i>
    <i name="e_wo_entrp">   -166.07198103 </i>
    <i name="e_0_energy">   -166.07308244 </i>
   </energy>
  </scstep>
  <structure>
   <crystal>
    <varray name="basis" >
     <v>       7.40170591       0.00000000       0.00000000 </v>
     <v>      -3.70085295       6.41006527       0.00000000 </v>
     <v>       0.00000000       0.00000000      20.00000000 </v>
    </varray>
    <i name="volume">    948.90835877 </i>
    <varray name="rec_basis" >
     <v>       0.13510399       0.07800233       0.00000000 </v>
     <v>       0.00000000       0.15600465       0.00000000 </v>
     <v>       0.00000000       0.00000000       0.05000000 </v>
    </varray>
   </crystal>
   <varray name="positions" >
    <v>       0.00000000       0.00000000       0.50050000 </v>
    <v>       0.33333333       0.00000000       0.50000000 </v>
    <v>       0.66666667       0.00000000       0.50000000 </v>
    <v>       0.00000000       0.33333333       0.50000000 </v>
    <v>       0.33333333       0.33333333       0.50000000 </v>
    <v>       0.66666667       0.33333333       0.50000000 </v>
    <v>       0.00000000       0.66666667       0.50000000 </v>
    <v>       0.33333333       0.66666667       0.50000000 </v>
    <v>       0.66666667       0.66666667       0.50000000 </v>
    <v>       0.22300225       0.11267116       0.50000000 </v>
    <v>       0.55555556       0.11111111       0.50000000 </v>
    <v>       0.88888889       0.11111111       0.50000000 </v>
    <v>       0.22222222       0.44444444       0.50000000 </v>
    <v>       0.55555556       0.44444444       0.50000000 </v>
    <v>       0.88888889       0.44444444       0.50000000 </v>
    <v>       0.22222222       0.77777778       0.50000000 </v>
    <v>       0.55555556       0.77777778       0.50000000 </v>
    <v>       0.88888889       0.77777778       0.50000000 </v>
   </varray>
  </structure>
  <varray name="forces" >
   <v>       0.05257687       0.13879048      -0.14459502 </v>
   <v>      -0.05259986       0.13883993      -0.00477192 </v>
   <v>      -0.00001438      -0.02509963      -0.00484194 </v>
   <v>       0.02319209       0.00855794      -0.00477119 </v>
   <v>       0.00003438       0.24308557      -0.00479398 </v>
   <v>      -0.02323111       0.00856526       0.00218354 </v>
   <v>      -0.00002629      -0.03170561      -0.00475893 </v>
   <v>      -0.01039761      -0.00714107       0.00218023 </v>
   <v>       0.01041796      -0.00716921      -0.00476457 </v>
   <v>      -0.00052590      -0.60793083       0.06240659 </v>
   <v>      -0.01373872      -0.02420840      -0.00896491 </v>
   <v>       0.01430381      -0.02454384       0.06187401 </v>
   <v>      -0.04629902       0.03218980       0.00351262 </v>
   <v>       0.04631431       0.03216316      -0.00918744 </v>
   <v>      -0.00001016       0.03083908      -0.00902691 </v>
   <v>      -0.01858337       0.03164470       0.00333639 </v>
   <v>      -0.00001416       0.03082524       0.00339648 </v>
   <v>       0.01860116       0.03229742       0.06158694 </v>
  </varray>
  <varray name="stress" >
   <v>      -0.22812514       0.00005999       0.00087649 </v>
   <v>       0.00006000      -0.08532678       0.00233839 </v>
   <v>       0.00087649       0.00233839      -0.57085627 </v>
  </varray>
  <energy>
   <i name="e_fr_energy">   -166.07418384 </i>
   <i name="e_wo_entrp">   -166.07198103 </i>
   <i name="e_0_energy">   -166.07308244 </i>
  </energy>
  <time name="totalsc">  142.66  142.16</time>
  <eigenvalues>
   <array>
    <dimension dim="1">band</dimension>
    <dimension dim="2">kpoint</dimension>
    <dimension dim="3">spin</dimension>
    <field>eigene</field>
    <field>occ</field>
    <set>
     <set comment="spin 1">
      <set comment="kpoint 1">
       <r>  -22.2559    1.0000 </r>
       <r>  -19.6960    1.0000 </r>
       <r>  -19.6748    1.0000 </r>
       <r>  -19.6743    1.0000 </r>
       <r>  -19.6718    1.0000 </r>
       <r>  -19.6690    1.0000 </r>
       <r>  -19.6544    1.0000 </r>
       <r>  -15.3579    1.0000 </r>
       <r>  -15.3407    1.0000 </r>
       <r>  -15.3330    1.0000 </r>
       <r>  -15.3314    1.0000 </r>
       <r>  -13.2920    1.0000 </r>
       <r>  -13.2873    1.0000 </r>
       <r>  -12.3992    1.0000 </r>
       <r>  -12.3809    1.0000 </r>
       <r>  -12.3756    1.0000 </r>
       <r>  -12.3738    1.0000 </r>
       <r>  -12.3633    1.0000 </r>
       <r>  -12.3549    1.0000 </r>
       <r>  -10.3599    1.0000 </r>
       <r>   -8.5503    1.0000 </r>
       <r>   -8.5277    1.0000 </r>
       <r>   -8.5236    1.0000 </r>
       <r>   -8.5230    1.0000 </r>
       <r>   -8.5202    1.0000 </r>
       <r>   -8.4962    1.0000 </r>
       <r>   -7.3899    1.0000 </r>
       <r>   -7.3717    1.0000 </r>
       <r>   -7.3713    1.0000 </r>
       <r>   -7.3695    1.0000 </r>
       <r>   -7.3684    1.0000 </r>
       <r>   -7.3544    1.0000 </r>
       <r>   -5.8007    1.0000 </r>
       <r>   -5.7679    1.0000 </r>
       <r>   -2.7714    0.6767 </r>
       <r>   -2.7553    0.5003 </r>
       <r>   -2.7528    0.4730 </r>
       <r>   -2.7416    0.3499 </r>
       <r>    0.5196    0.0000 </r>
       <r>    1.3120    0.0000 </r>
       <r>    1.6358    0.0000 </r>
       <r>    2.1188    0.0000 </r>
       <r>    2.1432    0.0000 </r>
       <r>    2.1445    0.0000 </r>
       <r>    2.1477    0.0000 </r>
       <r>    2.1503    0.0000 </r>
      </set>
      <set comment="kpoint 2">
       <r>  -22.2023    1.0000 </r>
       <r>  -20.3490    1.0000 </r>
       <r>  -19.9912    1.0000 </r>
       <r>  -19.9775    1.0000 </r>
       <r>  -19.2694    1.0000 </r>
       <r>  -19.2556    1.0000 </r>
       <r>  -18.9059    1.0000 </r>
       <r>  -16.0020    1.0000 </r>
       <r>  -15.9883    1.0000 </r>
       <r>  -14.9202    1.0000 </r>
       <r>  -14.9071    1.0000 </r>
       <r>  -13.5951    1.0000 </r>
       <r>  -12.9793    1.0000 </r>
       <r>  -12.9668    1.0000 </r>
       <r>  -12.9583    1.0000 </r>
       <r>  -12.9503    1.0000 </r>
       <r>  -11.7435    1.0000 </r>
       <r>  -11.7307    1.0000 </r>
       <r>  -11.1139    1.0000 </r>
       <r>  -10.2959    1.0000 </r>
       <r>   -8.8707    1.0000 </r>
       <r>   -8.8561    1.0000 </r>
       <r>   -8.8304    1.0000 </r>
       <r>   -8.5142    1.0000 </r>
       <r>   -8.4994    1.0000 </r>
       <r>   -8.1360    1.0000 </r>
       <r>   -8.1276    1.0000 </r>
       <r>   -7.7189    1.0000 </r>
       <r>   -7.7069    1.0000 </r>
       <r>   -6.9282    1.0000 </r>
       <r>   -6.9164    1.0000 </r>
       <r>   -6.5585    1.0000 </r>
       <r>   -5.9987    1.0000 </r>
       <r>   -5.9058    1.0000 </r>
       <r>   -3.5327    1.0000 </r>
       <r>   -3.5203    1.0000 </r>
       <r>   -2.0118    0.0000 </r>
       <r>   -1.9978    0.0000 </r>
       <r>    0.5921    0.0000 </r>
       <r>    0.8787    0.0000 </r>
       <r>    1.3856    0.0000 </r>
       <r>    1.4637    0.0000 </r>
       <r>    1.4813    0.0000 </r>
       <r>    1.7104    0.0000 </r>
       <r>    2.6298    0.0000 </r>
       <r>    2.7505    0.0000 </r>
      </set>
      <set comment="kpoint 3">
       <r>  -22.2024    1.0000 </r>
       <r>  -20.3493    1.0000 </r>
       <r>  -19.9855    1.0000 </r>
       <r>  -19.9828    1.0000 </r>
       <r>  -19.2638    1.0000 </r>
       <r>  -19.2609    1.0000 </r>
       <r>  -18.9062    1.0000 </r>
       <r>  -15.9997    1.0000 </r>
       <r>  -15.9916    1.0000 </r>
       <r>  -14.9166    1.0000 </r>
       <r>  -14.9083    1.0000 </r>
       <r>  -13.6029    1.0000 </r>
       <r>  -12.9755    1.0000 </r>
       <r>  -12.9689    1.0000 </r>
       <r>  -12.9534    1.0000 </r>
       <r>  -12.9512    1.0000 </r>
       <r>  -11.7354    1.0000 </r>
       <r>  -11.7269    1.0000 </r>
       <r>  -11.1245    1.0000 </r>
       <r>  -10.2959    1.0000 </r>
       <r>   -8.8743    1.0000 </r>
       <r>   -8.8609    1.0000 </r>
       <r>   -8.8209    1.0000 </r>
       <r>   -8.5217    1.0000 </r>
       <r>   -8.5069    1.0000 </r>
       <r>   -8.1258    1.0000 </r>
       <r>   -8.1224    1.0000 </r>
       <r>   -7.7163    1.0000 </r>
       <r>   -7.7126    1.0000 </r>
       <r>   -6.9255    1.0000 </r>
       <r>   -6.9219    1.0000 </r>
       <r>   -6.5538    1.0000 </r>
       <r>   -6.0202    1.0000 </r>
       <r>   -5.8841    1.0000 </r>
       <r>   -3.5285    1.0000 </r>
       <r>   -3.5254    1.0000 </r>
       <r>   -2.0051    0.0000 </r>
       <r>   -2.0034    0.0000 </r>
       <r>    0.5921    0.0000 </r>
       <r>    0.8672    0.0000 </r>
       <r>    1.3856    0.0000 </r>
       <r>    1.4750    0.0000 </r>
       <r>    1.4774    0.0000 </r>
       <r>    1.7104    0.0000 </r>
       <r>    2.6299    0.0000 </r>
       <r>    2.7628    0.0000 </r>
      </set>
      <set comment="kpoint 4">
       <r>  -22.2023    1.0000 </r>
       <r>  -20.3490    1.0000 </r>
       <r>  -19.9912    1.0000 </r>
       <r>  -19.9774    1.0000 </r>
       <r>  -19.2694    1.0000 </r>
       <r>  -19.2556    1.0000 </r>
       <r>  -18.9059    1.0000 </r>
       <r>  -16.0020    1.0000 </r>
       <r>  -15.9883    1.0000 </r>
       <r>  -14.9202    1.0000 </r>
       <r>  -14.9071    1.0000 </r>
       <r>  -13.5951    1.0000 </r>
       <r>  -12.9792    1.0000 </r>
       <r>  -12.9668    1.0000 </r>
       <r>  -12.9584    1.0000 </r>
       <r>  -12.9503    1.0000 </r>
       <r>  -11.7435    1.0000 </r>
       <r>  -11.7307    1.0000 </r>
       <r>  -11.1139    1.0000 </r>
       <r>  -10.2959    1.0000 </r>
       <r>   -8.8707    1.0000 </r>
       <r>   -8.8562    1.0000 </r>
       <r>   -8.8304    1.0000 </r>
       <r>   -8.5142    1.0000 </r>
       <r>   -8.4994    1.0000 </r>
       <r>   -8.1360    1.0000 </r>
       <r>   -8.1276    1.0000 </r>
       <r>   -7.7188    1.0000 </r>
       <r>   -7.7069    1.0000 </r>
       <r>   -6.9282    1.0000 </r>
       <r>   -6.9164    1.0000 </r>
       <r>   -6.5585    1.0000 </r>
       <r>   -5.9987    1.0000 </r>
       <r>   -5.9058    1.0000 </r>
       <r>   -3.5327    1.0000 </r>
       <r>   -3.5203    1.0000 </r>
       <r>   -2.0118    0.0000 </r>
       <r>   -1.9977    0.0000 </r>
       <r>    0.5921    0.0000 </r>
       <r>    0.8787    0.0000 </r>
       <r>    1.3856    0.0000 </r>
       <r>    1.4636    0.0000 </r>
       <r>    1.4814    0.0000 </r>
       <r>    1.7104    0.0000 </r>
       <r>    2.6298    0.0000 </r>
       <r>    2.7503    0.0000 </r>
      </set>
      <set comment="kpoint 5">
       <r>  -22.0418    1.0000 </r>
       <r>  -20.9266    1.0000 </r>
       <r>  -20.1996    1.0000 </r>
       <r>  -20.1860    1.0000 </r>
       <r>  -18.7623    1.0000 </r>
       <r>  -18.7483    1.0000 </r>
       <r>  -18.0630    1.0000 </r>
       <r>  -16.7519    1.0000 </r>
       <r>  -16.7380    1.0000 </r>
       <r>  -14.7509    1.0000 </r>
       <r>  -14.6307    1.0000 </r>
       <r>  -14.6190    1.0000 </r>
       <r>  -13.5061    1.0000 </r>
       <r>  -13.4947    1.0000 </r>
       <r>  -12.1901    1.0000 </r>
       <r>  -12.1764    1.0000 </r>
       <r>  -11.1074    1.0000 </r>
       <r>  -11.0943    1.0000 </r>
       <r>  -10.1047    1.0000 </r>
       <r>   -9.8560    1.0000 </r>
       <r>   -9.5012    1.0000 </r>
       <r>   -9.4863    1.0000 </r>
       <r>   -9.0418    1.0000 </r>
       <r>   -8.7927    1.0000 </r>
       <r>   -8.7640    1.0000 </r>
       <r>   -8.7504    1.0000 </r>
       <r>   -7.9502    1.0000 </r>
       <r>   -7.9382    1.0000 </r>
       <r>   -7.6762    1.0000 </r>
       <r>   -6.6157    1.0000 </r>
       <r>   -6.3830    1.0000 </r>
       <r>   -6.3713    1.0000 </r>
       <r>   -6.2233    1.0000 </r>
       <r>   -5.7674    1.0000 </r>
       <r>   -4.3046    1.0000 </r>
       <r>   -4.2928    1.0000 </r>
       <r>   -1.2908    0.0000 </r>
       <r>   -1.2756    0.0000 </r>
       <r>   -0.2331    0.0000 </r>
       <r>    0.7773    0.0000 </r>
       <r>    0.7941    0.0000 </r>
       <r>    0.8123    0.0000 </r>
       <r>    1.6064    0.0000 </r>
       <r>    1.9338    0.0000 </r>
       <r>    2.3341    0.0000 </r>
       <r>    2.8512    0.0000 </r>
      </set>
      <set comment="kpoint 6">
       <r>  -22.0419    1.0000 </r>
       <r>  -20.9268    1.0000 </r>
       <r>  -20.1937    1.0000 </r>
       <r>  -20.1913    1.0000 </r>
       <r>  -18.7572    1.0000 </r>
       <r>  -18.7536    1.0000 </r>
       <r>  -18.0627    1.0000 </r>
       <r>  -16.7486    1.0000 </r>
       <r>  -16.7423    1.0000 </r>
       <r>  -14.7591    1.0000 </r>
       <r>  -14.6258    1.0000 </r>
       <r>  -14.6196    1.0000 </r>
       <r>  -13.5004    1.0000 </r>
       <r>  -13.4941    1.0000 </r>
       <r>  -12.1858    1.0000 </r>
       <r>  -12.1841    1.0000 </r>
       <r>  -11.0971    1.0000 </r>
       <r>  -11.0877    1.0000 </r>
       <r>  -10.1046    1.0000 </r>
       <r>   -9.8687    1.0000 </r>
       <r>   -9.5035    1.0000 </r>
       <r>   -9.4925    1.0000 </r>
       <r>   -9.0307    1.0000 </r>
       <r>   -8.7919    1.0000 </r>
       <r>   -8.7745    1.0000 </r>
       <r>   -8.7599    1.0000 </r>
       <r>   -7.9477    1.0000 </r>
       <r>   -7.9439    1.0000 </r>
       <r>   -7.6610    1.0000 </r>
       <r>   -6.6363    1.0000 </r>
       <r>   -6.3804    1.0000 </r>
       <r>   -6.3766    1.0000 </r>
       <r>   -6.2018    1.0000 </r>
       <r>   -5.7598    1.0000 </r>
       <r>   -4.3010    1.0000 </r>
       <r>   -4.2978    1.0000 </r>
       <r>   -1.2827    0.0000 </r>
       <r>   -1.2815    0.0000 </r>
       <r>   -0.2477    0.0000 </r>
       <r>    0.7871    0.0000 </r>
       <r>    0.7904    0.0000 </r>
       <r>    0.8123    0.0000 </r>
       <r>    1.6064    0.0000 </r>
       <r>    1.9338    0.0000 </r>
       <r>    2.3341    0.0000 </r>
       <r>    2.8512    0.0000 </r>
      </set>
      <set comment="kpoint 7">
       <r>  -22.0418    1.0000 </r>
       <r>  -20.9266    1.0000 </r>
       <r>  -20.1996    1.0000 </r>
       <r>  -20.1860    1.0000 </r>
       <r>  -18.7623    1.0000 </r>
       <r>  -18.7483    1.0000 </r>
       <r>  -18.0630    1.0000 </r>
       <r>  -16.7520    1.0000 </r>
       <r>  -16.7380    1.0000 </r>
       <r>  -14.7509    1.0000 </r>
       <r>  -14.6307    1.0000 </r>
       <r>  -14.6190    1.0000 </r>
       <r>  -13.5061    1.0000 </r>
       <r>  -13.4947    1.0000 </r>
       <r>  -12.1901    1.0000 </r>
       <r>  -12.1764    1.0000 </r>
       <r>  -11.1075    1.0000 </r>
       <r>  -11.0942    1.0000 </r>
       <r>  -10.1047    1.0000 </r>
       <r>   -9.8560    1.0000 </r>
       <r>   -9.5012    1.0000 </r>
       <r>   -9.4863    1.0000 </r>
       <r>   -9.0418    1.0000 </r>
       <r>   -8.7929    1.0000 </r>
       <r>   -8.7636    1.0000 </r>
       <r>   -8.7508    1.0000 </r>
       <r>   -7.9503    1.0000 </r>
       <r>   -7.9382    1.0000 </r>
       <r>   -7.6762    1.0000 </r>
       <r>   -6.6157    1.0000 </r>
       <r>   -6.3831    1.0000 </r>
       <r>   -6.3712    1.0000 </r>
       <r>   -6.2233    1.0000 </r>
       <r>   -5.7674    1.0000 </r>
       <r>   -4.3046    1.0000 </r>
       <r>   -4.2928    1.0000 </r>
       <r>   -1.2908    0.0000 </r>
       <r>   -1.2756    0.0000 </r>
       <r>   -0.2330    0.0000 </r>
       <r>    0.7769    0.0000 </r>
       <r>    0.7949    0.0000 </r>
       <r>    0.8120    0.0000 </r>
       <r>    1.6064    0.0000 </r>
       <r>    1.9338    0.0000 </r>
       <r>    2.3340    0.0000 </r>
       <r>    2.8512    0.0000 </r>
      </set>
      <set comment="kpoint 8">
       <r>  -21.7750    1.0000 </r>
       <r>  -21.4027    1.0000 </r>
       <r>  -20.3042    1.0000 </r>
       <r>  -20.2906    1.0000 </r>
       <r>  -18.1652    1.0000 </r>
       <r>  -18.1511    1.0000 </r>
       <r>  -17.4883    1.0000 </r>
       <r>  -17.4742    1.0000 </r>
       <r>  -17.2299    1.0000 </r>
       <r>  -15.7420    1.0000 </r>
       <r>  -14.3289    1.0000 </r>
       <r>  -14.3173    1.0000 </r>
       <r>  -13.9574    1.0000 </r>
       <r>  -13.9463    1.0000 </r>
       <r>  -11.2652    1.0000 </r>
       <r>  -11.2505    1.0000 </r>
       <r>  -10.6082    1.0000 </r>
       <r>  -10.5957    1.0000 </r>
       <r>  -10.3338    1.0000 </r>
       <r>  -10.3191    1.0000 </r>
       <r>   -9.7878    1.0000 </r>
       <r>   -9.3486    1.0000 </r>
       <r>   -9.1486    1.0000 </r>
       <r>   -9.0895    1.0000 </r>
       <r>   -9.0799    1.0000 </r>
       <r>   -8.6409    1.0000 </r>
       <r>   -8.0666    1.0000 </r>
       <r>   -8.0546    1.0000 </r>
       <r>   -7.5326    1.0000 </r>
       <r>   -7.1740    1.0000 </r>
       <r>   -6.6705    1.0000 </r>
       <r>   -5.7525    1.0000 </r>
       <r>   -5.7408    1.0000 </r>
       <r>   -5.2019    1.0000 </r>
       <r>   -5.0524    1.0000 </r>
       <r>   -5.0410    1.0000 </r>
       <r>   -0.9641    0.0000 </r>
       <r>   -0.5935    0.0000 </r>
       <r>   -0.5773    0.0000 </r>
       <r>    0.0928    0.0000 </r>
       <r>    0.1095    0.0000 </r>
       <r>    1.1735    0.0000 </r>
       <r>    1.6817    0.0000 </r>
       <r>    1.9738    0.0000 </r>
       <r>    2.3062    0.0000 </r>
       <r>    2.4867    0.0000 </r>
      </set>
      <set comment="kpoint 9">
       <r>  -21.7751    1.0000 </r>
       <r>  -21.4027    1.0000 </r>
       <r>  -20.2982    1.0000 </r>
       <r>  -20.2959    1.0000 </r>
       <r>  -18.1607    1.0000 </r>
       <r>  -18.1562    1.0000 </r>
       <r>  -17.4841    1.0000 </r>
       <r>  -17.4790    1.0000 </r>
       <r>  -17.2262    1.0000 </r>
       <r>  -15.7529    1.0000 </r>
       <r>  -14.3237    1.0000 </r>
       <r>  -14.3175    1.0000 </r>
       <r>  -13.9520    1.0000 </r>
       <r>  -13.9459    1.0000 </r>
       <r>  -11.2630    1.0000 </r>
       <r>  -11.2578    1.0000 </r>
       <r>  -10.5935    1.0000 </r>
       <r>  -10.5832    1.0000 </r>
       <r>  -10.3343    1.0000 </r>
       <r>  -10.3258    1.0000 </r>
       <r>   -9.7875    1.0000 </r>
       <r>   -9.3479    1.0000 </r>
       <r>   -9.1371    1.0000 </r>
       <r>   -9.1074    1.0000 </r>
       <r>   -9.0931    1.0000 </r>
       <r>   -8.6557    1.0000 </r>
       <r>   -8.0640    1.0000 </r>
       <r>   -8.0604    1.0000 </r>
       <r>   -7.5500    1.0000 </r>
       <r>   -7.1576    1.0000 </r>
       <r>   -6.6508    1.0000 </r>
       <r>   -5.7499    1.0000 </r>
       <r>   -5.7460    1.0000 </r>
       <r>   -5.1911    1.0000 </r>
       <r>   -5.0489    1.0000 </r>
       <r>   -5.0462    1.0000 </r>
       <r>   -0.9826    0.0000 </r>
       <r>   -0.5837    0.0000 </r>
       <r>   -0.5835    0.0000 </r>
       <r>    0.1030    0.0000 </r>
       <r>    0.1040    0.0000 </r>
       <r>    1.1735    0.0000 </r>
       <r>    1.6817    0.0000 </r>
       <r>    1.9738    0.0000 </r>
       <r>    2.3062    0.0000 </r>
       <r>    2.4868    0.0000 </r>
      </set>
      <set comment="kpoint 10">
       <r>  -21.7750    1.0000 </r>
       <r>  -21.4027    1.0000 </r>
       <r>  -20.3042    1.0000 </r>
       <r>  -20.2906    1.0000 </r>
       <r>  -18.1652    1.0000 </r>
       <r>  -18.1511    1.0000 </r>
       <r>  -17.4884    1.0000 </r>
       <r>  -17.4742    1.0000 </r>
       <r>  -17.2299    1.0000 </r>
       <r>  -15.7420    1.0000 </r>
       <r>  -14.3289    1.0000 </r>
       <r>  -14.3172    1.0000 </r>
       <r>  -13.9574    1.0000 </r>
       <r>  -13.9463    1.0000 </r>
       <r>  -11.2652    1.0000 </r>
       <r>  -11.2505    1.0000 </r>
       <r>  -10.6082    1.0000 </r>
       <r>  -10.5956    1.0000 </r>
       <r>  -10.3338    1.0000 </r>
       <r>  -10.3191    1.0000 </r>
       <r>   -9.7878    1.0000 </r>
       <r>   -9.3486    1.0000 </r>
       <r>   -9.1486    1.0000 </r>
       <r>   -9.0894    1.0000 </r>
       <r>   -9.0800    1.0000 </r>
       <r>   -8.6409    1.0000 </r>
       <r>   -8.0667    1.0000 </r>
       <r>   -8.0546    1.0000 </r>
       <r>   -7.5326    1.0000 </r>
       <r>   -7.1740    1.0000 </r>
       <r>   -6.6705    1.0000 </r>
       <r>   -5.7525    1.0000 </r>
       <r>   -5.7408    1.0000 </r>
       <r>   -5.2019    1.0000 </r>
       <r>   -5.0524    1.0000 </r>
       <r>   -5.0410    1.0000 </r>
       <r>   -0.9641    0.0000 </r>
       <r>   -0.5935    0.0000 </r>
       <r>   -0.5773    0.0000 </r>
       <r>    0.0928    0.0000 </r>
       <r>    0.1096    0.0000 </r>
       <r>    1.1735    0.0000 </r>
       <r>    1.6817    0.0000 </r>
       <r>    1.9738    0.0000 </r>
       <r>    2.3062    0.0000 </r>
       <r>    2.4867    0.0000 </r>
      </set>
      <set comment="kpoint 11">
       <r>  -22.0953    1.0000 </r>
       <r>  -20.6143    1.0000 </r>
       <r>  -20.6077    1.0000 </r>
       <r>  -19.5238    1.0000 </r>
       <r>  -19.5148    1.0000 </r>
       <r>  -18.4583    1.0000 </r>
       <r>  -18.4515    1.0000 </r>
       <r>  -16.7784    1.0000 </r>
       <r>  -16.1642    1.0000 </r>
       <r>  -15.2354    1.0000 </r>
       <r>  -14.2594    1.0000 </r>
       <r>  -14.1652    1.0000 </r>
       <r>  -14.1536    1.0000 </r>
       <r>  -12.6016    1.0000 </r>
       <r>  -12.3094    1.0000 </r>
       <r>  -12.3010    1.0000 </r>
       <r>  -12.2716    1.0000 </r>
       <r>  -10.4966    1.0000 </r>
       <r>  -10.4790    1.0000 </r>
       <r>  -10.1682    1.0000 </r>
       <r>   -9.1882    1.0000 </r>
       <r>   -9.1747    1.0000 </r>
       <r>   -9.1272    1.0000 </r>
       <r>   -9.1142    1.0000 </r>
       <r>   -8.4286    1.0000 </r>
       <r>   -8.4232    1.0000 </r>
       <r>   -8.0824    1.0000 </r>
       <r>   -8.0632    1.0000 </r>
       <r>   -7.1959    1.0000 </r>
       <r>   -7.1876    1.0000 </r>
       <r>   -6.4165    1.0000 </r>
       <r>   -6.1237    1.0000 </r>
       <r>   -6.1065    1.0000 </r>
       <r>   -6.0993    1.0000 </r>
       <r>   -4.2555    1.0000 </r>
       <r>   -3.9032    1.0000 </r>
       <r>   -1.7053    0.0000 </r>
       <r>   -1.2688    0.0000 </r>
       <r>    0.2636    0.0000 </r>
       <r>    0.2773    0.0000 </r>
       <r>    0.7376    0.0000 </r>
       <r>    1.5328    0.0000 </r>
       <r>    1.8593    0.0000 </r>
       <r>    2.0089    0.0000 </r>
       <r>    2.0201    0.0000 </r>
       <r>    2.7774    0.0000 </r>
      </set>
      <set comment="kpoint 12">
       <r>  -22.0953    1.0000 </r>
       <r>  -20.6144    1.0000 </r>
       <r>  -20.6077    1.0000 </r>
       <r>  -19.5238    1.0000 </r>
       <r>  -19.5148    1.0000 </r>
       <r>  -18.4584    1.0000 </r>
       <r>  -18.4514    1.0000 </r>
       <r>  -16.7784    1.0000 </r>
       <r>  -16.1642    1.0000 </r>
       <r>  -15.2354    1.0000 </r>
       <r>  -14.2594    1.0000 </r>
       <r>  -14.1653    1.0000 </r>
       <r>  -14.1536    1.0000 </r>
       <r>  -12.6016    1.0000 </r>
       <r>  -12.3094    1.0000 </r>
       <r>  -12.3009    1.0000 </r>
       <r>  -12.2716    1.0000 </r>
       <r>  -10.4966    1.0000 </r>
       <r>  -10.4790    1.0000 </r>
       <r>  -10.1682    1.0000 </r>
       <r>   -9.1882    1.0000 </r>
       <r>   -9.1747    1.0000 </r>
       <r>   -9.1272    1.0000 </r>
       <r>   -9.1142    1.0000 </r>
       <r>   -8.4287    1.0000 </r>
       <r>   -8.4231    1.0000 </r>
       <r>   -8.0823    1.0000 </r>
       <r>   -8.0632    1.0000 </r>
       <r>   -7.1959    1.0000 </r>
       <r>   -7.1876    1.0000 </r>
       <r>   -6.4165    1.0000 </r>
       <r>   -6.1237    1.0000 </r>
       <r>   -6.1065    1.0000 </r>
       <r>   -6.0993    1.0000 </r>
       <r>   -4.2555    1.0000 </r>
       <r>   -3.9032    1.0000 </r>
       <r>   -1.7053    0.0000 </r>
       <r>   -1.2688    0.0000 </r>
       <r>    0.2636    0.0000 </r>
       <r>    0.2774    0.0000 </r>
       <r>    0.7376    0.0000 </r>
       <r>    1.5328    0.0000 </r>
       <r>    1.8593    0.0000 </r>
       <r>    2.0087    0.0000 </r>
       <r>    2.0203    0.0000 </r>
       <r>    2.7774    0.0000 </r>
      </set>
      <set comment="kpoint 13">
       <r>  -22.0953    1.0000 </r>
       <r>  -20.6176    1.0000 </r>
       <r>  -20.6044    1.0000 </r>
       <r>  -19.5286    1.0000 </r>
       <r>  -19.5106    1.0000 </r>
       <r>  -18.4617    1.0000 </r>
       <r>  -18.4480    1.0000 </r>
       <r>  -16.7794    1.0000 </r>
       <r>  -16.1568    1.0000 </r>
       <r>  -15.2504    1.0000 </r>
       <r>  -14.2485    1.0000 </r>
       <r>  -14.1657    1.0000 </r>
       <r>  -14.1458    1.0000 </r>
       <r>  -12.6112    1.0000 </r>
       <r>  -12.3198    1.0000 </r>
       <r>  -12.3067    1.0000 </r>
       <r>  -12.2651    1.0000 </r>
       <r>  -10.4959    1.0000 </r>
       <r>  -10.4716    1.0000 </r>
       <r>  -10.1683    1.0000 </r>
       <r>   -9.1800    1.0000 </r>
       <r>   -9.1597    1.0000 </r>
       <r>   -9.1344    1.0000 </r>
       <r>   -9.1183    1.0000 </r>
       <r>   -8.4315    1.0000 </r>
       <r>   -8.4211    1.0000 </r>
       <r>   -8.0890    1.0000 </r>
       <r>   -8.0669    1.0000 </r>
       <r>   -7.1971    1.0000 </r>
       <r>   -7.1808    1.0000 </r>
       <r>   -6.3930    1.0000 </r>
       <r>   -6.1475    1.0000 </r>
       <r>   -6.1114    1.0000 </r>
       <r>   -6.1016    1.0000 </r>
       <r>   -4.2624    1.0000 </r>
       <r>   -3.8917    1.0000 </r>
       <r>   -1.7208    0.0000 </r>
       <r>   -1.2581    0.0000 </r>
       <r>    0.2714    0.0000 </r>
       <r>    0.2844    0.0000 </r>
       <r>    0.7376    0.0000 </r>
       <r>    1.5328    0.0000 </r>
       <r>    1.8593    0.0000 </r>
       <r>    1.9951    0.0000 </r>
       <r>    2.0168    0.0000 </r>
       <r>    2.7774    0.0000 </r>
      </set>
      <set comment="kpoint 14">
       <r>  -21.8816    1.0000 </r>
       <r>  -21.1378    1.0000 </r>
       <r>  -20.7689    1.0000 </r>
       <r>  -19.6745    1.0000 </r>
       <r>  -18.9579    1.0000 </r>
       <r>  -17.9164    1.0000 </r>
       <r>  -17.5954    1.0000 </r>
       <r>  -17.5713    1.0000 </r>
       <r>  -16.6726    1.0000 </r>
       <r>  -15.2517    1.0000 </r>
       <r>  -15.2449    1.0000 </r>
       <r>  -14.6404    1.0000 </r>
       <r>  -13.7324    1.0000 </r>
       <r>  -12.8164    1.0000 </r>
       <r>  -11.8934    1.0000 </r>
       <r>  -11.6826    1.0000 </r>
       <r>  -11.3921    1.0000 </r>
       <r>  -10.0459    1.0000 </r>
       <r>   -9.9253    1.0000 </r>
       <r>   -9.9133    1.0000 </r>
       <r>   -9.7040    1.0000 </r>
       <r>   -9.6302    1.0000 </r>
       <r>   -9.2874    1.0000 </r>
       <r>   -9.2561    1.0000 </r>
       <r>   -9.0379    1.0000 </r>
       <r>   -8.6061    1.0000 </r>
       <r>   -8.2494    1.0000 </r>
       <r>   -7.5865    1.0000 </r>
       <r>   -7.3539    1.0000 </r>
       <r>   -7.1438    1.0000 </r>
       <r>   -6.5704    1.0000 </r>
       <r>   -6.5442    1.0000 </r>
       <r>   -5.5767    1.0000 </r>
       <r>   -5.3885    1.0000 </r>
       <r>   -5.0714    1.0000 </r>
       <r>   -4.4371    1.0000 </r>
       <r>   -1.2901    0.0000 </r>
       <r>   -0.6803    0.0000 </r>
       <r>   -0.4307    0.0000 </r>
       <r>   -0.3068    0.0000 </r>
       <r>    1.0282    0.0000 </r>
       <r>    1.2301    0.0000 </r>
       <r>    1.8269    0.0000 </r>
       <r>    2.0446    0.0000 </r>
       <r>    2.1572    0.0000 </r>
       <r>    2.4017    0.0000 </r>
      </set>
      <set comment="kpoint 15">
       <r>  -21.8817    1.0000 </r>
       <r>  -21.1380    1.0000 </r>
       <r>  -20.7686    1.0000 </r>
       <r>  -19.6742    1.0000 </r>
       <r>  -18.9581    1.0000 </r>
       <r>  -17.9170    1.0000 </r>
       <r>  -17.5946    1.0000 </r>
       <r>  -17.5709    1.0000 </r>
       <r>  -16.6723    1.0000 </r>
       <r>  -15.2615    1.0000 </r>
       <r>  -15.2448    1.0000 </r>
       <r>  -14.6324    1.0000 </r>
       <r>  -13.7283    1.0000 </r>
       <r>  -12.8199    1.0000 </r>
       <r>  -11.8975    1.0000 </r>
       <r>  -11.6763    1.0000 </r>
       <r>  -11.3914    1.0000 </r>
       <r>  -10.0414    1.0000 </r>
       <r>   -9.9156    1.0000 </r>
       <r>   -9.9073    1.0000 </r>
       <r>   -9.7143    1.0000 </r>
       <r>   -9.6374    1.0000 </r>
       <r>   -9.2756    1.0000 </r>
       <r>   -9.2727    1.0000 </r>
       <r>   -9.0369    1.0000 </r>
       <r>   -8.6075    1.0000 </r>
       <r>   -8.2676    1.0000 </r>
       <r>   -7.5684    1.0000 </r>
       <r>   -7.3556    1.0000 </r>
       <r>   -7.1537    1.0000 </r>
       <r>   -6.5682    1.0000 </r>
       <r>   -6.5341    1.0000 </r>
       <r>   -5.5835    1.0000 </r>
       <r>   -5.3794    1.0000 </r>
       <r>   -5.0730    1.0000 </r>
       <r>   -4.4355    1.0000 </r>
       <r>   -1.2925    0.0000 </r>
       <r>   -0.6966    0.0000 </r>
       <r>   -0.4267    0.0000 </r>
       <r>   -0.2944    0.0000 </r>
       <r>    1.0282    0.0000 </r>
       <r>    1.2245    0.0000 </r>
       <r>    1.8269    0.0000 </r>
       <r>    2.0446    0.0000 </r>
       <r>    2.1572    0.0000 </r>
       <r>    2.4081    0.0000 </r>
      </set>
      <set comment="kpoint 16">
       <r>  -21.8816    1.0000 </r>
       <r>  -21.1379    1.0000 </r>
       <r>  -20.7687    1.0000 </r>
       <r>  -19.6747    1.0000 </r>
       <r>  -18.9581    1.0000 </r>
       <r>  -17.9169    1.0000 </r>
       <r>  -17.5945    1.0000 </r>
       <r>  -17.5724    1.0000 </r>
       <r>  -16.6684    1.0000 </r>
       <r>  -15.2618    1.0000 </r>
       <r>  -15.2469    1.0000 </r>
       <r>  -14.6317    1.0000 </r>
       <r>  -13.7210    1.0000 </r>
       <r>  -12.8270    1.0000 </r>
       <r>  -11.9057    1.0000 </r>
       <r>  -11.6891    1.0000 </r>
       <r>  -11.3827    1.0000 </r>
       <r>  -10.0328    1.0000 </r>
       <r>   -9.9188    1.0000 </r>
       <r>   -9.9122    1.0000 </r>
       <r>   -9.7148    1.0000 </r>
       <r>   -9.6218    1.0000 </r>
       <r>   -9.2881    1.0000 </r>
       <r>   -9.2596    1.0000 </r>
       <r>   -9.0376    1.0000 </r>
       <r>   -8.6066    1.0000 </r>
       <r>   -8.2594    1.0000 </r>
       <r>   -7.5817    1.0000 </r>
       <r>   -7.3529    1.0000 </r>
       <r>   -7.1302    1.0000 </r>
       <r>   -6.5677    1.0000 </r>
       <r>   -6.5571    1.0000 </r>
       <r>   -5.5847    1.0000 </r>
       <r>   -5.3888    1.0000 </r>
       <r>   -5.0776    1.0000 </r>
       <r>   -4.4257    1.0000 </r>
       <r>   -1.3073    0.0000 </r>
       <r>   -0.6795    0.0000 </r>
       <r>   -0.4182    0.0000 </r>
       <r>   -0.2921    0.0000 </r>
       <r>    1.0281    0.0000 </r>
       <r>    1.2185    0.0000 </r>
       <r>    1.8269    0.0000 </r>
       <r>    2.0446    0.0000 </r>
       <r>    2.1572    0.0000 </r>
       <r>    2.3983    0.0000 </r>
      </set>
      <set comment="kpoint 17">
       <r>  -21.8816    1.0000 </r>
       <r>  -21.1378    1.0000 </r>
       <r>  -20.7689    1.0000 </r>
       <r>  -19.6745    1.0000 </r>
       <r>  -18.9579    1.0000 </r>
       <r>  -17.9164    1.0000 </r>
       <r>  -17.5954    1.0000 </r>
       <r>  -17.5713    1.0000 </r>
       <r>  -16.6726    1.0000 </r>
       <r>  -15.2517    1.0000 </r>
       <r>  -15.2449    1.0000 </r>
       <r>  -14.6404    1.0000 </r>
       <r>  -13.7324    1.0000 </r>
       <r>  -12.8164    1.0000 </r>
       <r>  -11.8934    1.0000 </r>
       <r>  -11.6826    1.0000 </r>
       <r>  -11.3921    1.0000 </r>
       <r>  -10.0459    1.0000 </r>
       <r>   -9.9252    1.0000 </r>
       <r>   -9.9133    1.0000 </r>
       <r>   -9.7040    1.0000 </r>
       <r>   -9.6302    1.0000 </r>
       <r>   -9.2874    1.0000 </r>
       <r>   -9.2561    1.0000 </r>
       <r>   -9.0379    1.0000 </r>
       <r>   -8.6061    1.0000 </r>
       <r>   -8.2494    1.0000 </r>
       <r>   -7.5865    1.0000 </r>
       <r>   -7.3539    1.0000 </r>
       <r>   -7.1438    1.0000 </r>
       <r>   -6.5704    1.0000 </r>
       <r>   -6.5443    1.0000 </r>
       <r>   -5.5767    1.0000 </r>
       <r>   -5.3885    1.0000 </r>
       <r>   -5.0714    1.0000 </r>
       <r>   -4.4371    1.0000 </r>
       <r>   -1.2901    0.0000 </r>
       <r>   -0.6803    0.0000 </r>
       <r>   -0.4307    0.0000 </r>
       <r>   -0.3068    0.0000 </r>
       <r>    1.0282    0.0000 </r>
       <r>    1.2301    0.0000 </r>
       <r>    1.8269    0.0000 </r>
       <r>    2.0446    0.0000 </r>
       <r>    2.1572    0.0000 </r>
       <r>    2.4017    0.0000 </r>
      </set>
      <set comment="kpoint 18">
       <r>  -21.8817    1.0000 </r>
       <r>  -21.1380    1.0000 </r>
       <r>  -20.7686    1.0000 </r>
       <r>  -19.6742    1.0000 </r>
       <r>  -18.9581    1.0000 </r>
       <r>  -17.9170    1.0000 </r>
       <r>  -17.5946    1.0000 </r>
       <r>  -17.5708    1.0000 </r>
       <r>  -16.6723    1.0000 </r>
       <r>  -15.2615    1.0000 </r>
       <r>  -15.2448    1.0000 </r>
       <r>  -14.6324    1.0000 </r>
       <r>  -13.7283    1.0000 </r>
       <r>  -12.8199    1.0000 </r>
       <r>  -11.8975    1.0000 </r>
       <r>  -11.6763    1.0000 </r>
       <r>  -11.3914    1.0000 </r>
       <r>  -10.0414    1.0000 </r>
       <r>   -9.9156    1.0000 </r>
       <r>   -9.9073    1.0000 </r>
       <r>   -9.7143    1.0000 </r>
       <r>   -9.6374    1.0000 </r>
       <r>   -9.2756    1.0000 </r>
       <r>   -9.2727    1.0000 </r>
       <r>   -9.0369    1.0000 </r>
       <r>   -8.6075    1.0000 </r>
       <r>   -8.2676    1.0000 </r>
       <r>   -7.5684    1.0000 </r>
       <r>   -7.3556    1.0000 </r>
       <r>   -7.1537    1.0000 </r>
       <r>   -6.5683    1.0000 </r>
       <r>   -6.5341    1.0000 </r>
       <r>   -5.5835    1.0000 </r>
       <r>   -5.3794    1.0000 </r>
       <r>   -5.0730    1.0000 </r>
       <r>   -4.4355    1.0000 </r>
       <r>   -1.2925    0.0000 </r>
       <r>   -0.6966    0.0000 </r>
       <r>   -0.4267    0.0000 </r>
       <r>   -0.2944    0.0000 </r>
       <r>    1.0282    0.0000 </r>
       <r>    1.2245    0.0000 </r>
       <r>    1.8269    0.0000 </r>
       <r>    2.0447    0.0000 </r>
       <r>    2.1572    0.0000 </r>
       <r>    2.4404    0.0000 </r>
      </set>
      <set comment="kpoint 19">
       <r>  -21.8816    1.0000 </r>
       <r>  -21.1379    1.0000 </r>
       <r>  -20.7687    1.0000 </r>
       <r>  -19.6747    1.0000 </r>
       <r>  -18.9581    1.0000 </r>
       <r>  -17.9169    1.0000 </r>
       <r>  -17.5945    1.0000 </r>
       <r>  -17.5724    1.0000 </r>
       <r>  -16.6684    1.0000 </r>
       <r>  -15.2618    1.0000 </r>
       <r>  -15.2469    1.0000 </r>
       <r>  -14.6317    1.0000 </r>
       <r>  -13.7210    1.0000 </r>
       <r>  -12.8270    1.0000 </r>
       <r>  -11.9056    1.0000 </r>
       <r>  -11.6891    1.0000 </r>
       <r>  -11.3827    1.0000 </r>
       <r>  -10.0328    1.0000 </r>
       <r>   -9.9188    1.0000 </r>
       <r>   -9.9122    1.0000 </r>
       <r>   -9.7148    1.0000 </r>
       <r>   -9.6218    1.0000 </r>
       <r>   -9.2881    1.0000 </r>
       <r>   -9.2596    1.0000 </r>
       <r>   -9.0376    1.0000 </r>
       <r>   -8.6066    1.0000 </r>
       <r>   -8.2594    1.0000 </r>
       <r>   -7.5817    1.0000 </r>
       <r>   -7.3529    1.0000 </r>
       <r>   -7.1302    1.0000 </r>
       <r>   -6.5677    1.0000 </r>
       <r>   -6.5571    1.0000 </r>
       <r>   -5.5847    1.0000 </r>
       <r>   -5.3888    1.0000 </r>
       <r>   -5.0776    1.0000 </r>
       <r>   -4.4257    1.0000 </r>
       <r>   -1.3073    0.0000 </r>
       <r>   -0.6795    0.0000 </r>
       <r>   -0.4182    0.0000 </r>
       <r>   -0.2921    0.0000 </r>
       <r>    1.0281    0.0000 </r>
       <r>    1.2185    0.0000 </r>
       <r>    1.8269    0.0000 </r>
       <r>    2.0446    0.0000 </r>
       <r>    2.1572    0.0000 </r>
       <r>    2.3983    0.0000 </r>
      </set>
      <set comment="kpoint 20">
       <r>  -21.5653    1.0000 </r>
       <r>  -21.5587    1.0000 </r>
       <r>  -20.8215    1.0000 </r>
       <r>  -19.7263    1.0000 </r>
       <r>  -18.3108    1.0000 </r>
       <r>  -18.3013    1.0000 </r>
       <r>  -17.3123    1.0000 </r>
       <r>  -17.3022    1.0000 </r>
       <r>  -16.9890    1.0000 </r>
       <r>  -15.9345    1.0000 </r>
       <r>  -15.0168    1.0000 </r>
       <r>  -15.0051    1.0000 </r>
       <r>  -13.2887    1.0000 </r>
       <r>  -13.2756    1.0000 </r>
       <r>  -11.3629    1.0000 </r>
       <r>  -10.9946    1.0000 </r>
       <r>  -10.9807    1.0000 </r>
       <r>  -10.5044    1.0000 </r>
       <r>  -10.4927    1.0000 </r>
       <r>   -9.9004    1.0000 </r>
       <r>   -9.6404    1.0000 </r>
       <r>   -9.5387    1.0000 </r>
       <r>   -9.5332    1.0000 </r>
       <r>   -9.3394    1.0000 </r>
       <r>   -8.6668    1.0000 </r>
       <r>   -8.4127    1.0000 </r>
       <r>   -8.1269    1.0000 </r>
       <r>   -8.1121    1.0000 </r>
       <r>   -7.4084    1.0000 </r>
       <r>   -7.0673    1.0000 </r>
       <r>   -7.0502    1.0000 </r>
       <r>   -5.8606    1.0000 </r>
       <r>   -5.8512    1.0000 </r>
       <r>   -5.0674    1.0000 </r>
       <r>   -5.0167    1.0000 </r>
       <r>   -5.0052    1.0000 </r>
       <r>   -1.0831    0.0000 </r>
       <r>   -0.8340    0.0000 </r>
       <r>   -0.8161    0.0000 </r>
       <r>    0.4040    0.0000 </r>
       <r>    0.4179    0.0000 </r>
       <r>    1.4638    0.0000 </r>
       <r>    1.4645    0.0000 </r>
       <r>    2.2671    0.0000 </r>
       <r>    2.2674    0.0000 </r>
       <r>    2.4837    0.0000 </r>
      </set>
      <set comment="kpoint 21">
       <r>  -21.5686    1.0000 </r>
       <r>  -21.5556    1.0000 </r>
       <r>  -20.8213    1.0000 </r>
       <r>  -19.7260    1.0000 </r>
       <r>  -18.3156    1.0000 </r>
       <r>  -18.2967    1.0000 </r>
       <r>  -17.3180    1.0000 </r>
       <r>  -17.2983    1.0000 </r>
       <r>  -16.9827    1.0000 </r>
       <r>  -15.9481    1.0000 </r>
       <r>  -15.0137    1.0000 </r>
       <r>  -15.0001    1.0000 </r>
       <r>  -13.2886    1.0000 </r>
       <r>  -13.2745    1.0000 </r>
       <r>  -11.3489    1.0000 </r>
       <r>  -10.9941    1.0000 </r>
       <r>  -10.9826    1.0000 </r>
       <r>  -10.5084    1.0000 </r>
       <r>  -10.4971    1.0000 </r>
       <r>   -9.9155    1.0000 </r>
       <r>   -9.6243    1.0000 </r>
       <r>   -9.5408    1.0000 </r>
       <r>   -9.5302    1.0000 </r>
       <r>   -9.3285    1.0000 </r>
       <r>   -8.6679    1.0000 </r>
       <r>   -8.4312    1.0000 </r>
       <r>   -8.1467    1.0000 </r>
       <r>   -8.1230    1.0000 </r>
       <r>   -7.4106    1.0000 </r>
       <r>   -7.0578    1.0000 </r>
       <r>   -7.0253    1.0000 </r>
       <r>   -5.8634    1.0000 </r>
       <r>   -5.8476    1.0000 </r>
       <r>   -5.0557    1.0000 </r>
       <r>   -5.0215    1.0000 </r>
       <r>   -5.0069    1.0000 </r>
       <r>   -1.1021    0.0000 </r>
       <r>   -0.8252    0.0000 </r>
       <r>   -0.8138    0.0000 </r>
       <r>    0.4027    0.0000 </r>
       <r>    0.4170    0.0000 </r>
       <r>    1.4634    0.0000 </r>
       <r>    1.4649    0.0000 </r>
       <r>    2.2670    0.0000 </r>
       <r>    2.2676    0.0000 </r>
       <r>    2.4962    0.0000 </r>
      </set>
      <set comment="kpoint 22">
       <r>  -21.5653    1.0000 </r>
       <r>  -21.5588    1.0000 </r>
       <r>  -20.8215    1.0000 </r>
       <r>  -19.7263    1.0000 </r>
       <r>  -18.3108    1.0000 </r>
       <r>  -18.3013    1.0000 </r>
       <r>  -17.3123    1.0000 </r>
       <r>  -17.3023    1.0000 </r>
       <r>  -16.9890    1.0000 </r>
       <r>  -15.9345    1.0000 </r>
       <r>  -15.0168    1.0000 </r>
       <r>  -15.0051    1.0000 </r>
       <r>  -13.2887    1.0000 </r>
       <r>  -13.2756    1.0000 </r>
       <r>  -11.3629    1.0000 </r>
       <r>  -10.9946    1.0000 </r>
       <r>  -10.9807    1.0000 </r>
       <r>  -10.5043    1.0000 </r>
       <r>  -10.4927    1.0000 </r>
       <r>   -9.9004    1.0000 </r>
       <r>   -9.6404    1.0000 </r>
       <r>   -9.5386    1.0000 </r>
       <r>   -9.5333    1.0000 </r>
       <r>   -9.3394    1.0000 </r>
       <r>   -8.6668    1.0000 </r>
       <r>   -8.4127    1.0000 </r>
       <r>   -8.1269    1.0000 </r>
       <r>   -8.1121    1.0000 </r>
       <r>   -7.4084    1.0000 </r>
       <r>   -7.0672    1.0000 </r>
       <r>   -7.0503    1.0000 </r>
       <r>   -5.8606    1.0000 </r>
       <r>   -5.8511    1.0000 </r>
       <r>   -5.0674    1.0000 </r>
       <r>   -5.0167    1.0000 </r>
       <r>   -5.0052    1.0000 </r>
       <r>   -1.0831    0.0000 </r>
       <r>   -0.8339    0.0000 </r>
       <r>   -0.8161    0.0000 </r>
       <r>    0.4041    0.0000 </r>
       <r>    0.4178    0.0000 </r>
       <r>    1.4638    0.0000 </r>
       <r>    1.4645    0.0000 </r>
       <r>    2.2671    0.0000 </r>
       <r>    2.2674    0.0000 </r>
       <r>    2.4854    0.0000 </r>
      </set>
      <set comment="kpoint 23">
       <r>  -21.6154    1.0000 </r>
       <r>  -21.2469    1.0000 </r>
       <r>  -21.2404    1.0000 </r>
       <r>  -19.0647    1.0000 </r>
       <r>  -19.0555    1.0000 </r>
       <r>  -18.3557    1.0000 </r>
       <r>  -17.0924    1.0000 </r>
       <r>  -17.0844    1.0000 </r>
       <r>  -16.7135    1.0000 </r>
       <r>  -15.6722    1.0000 </r>
       <r>  -15.6226    1.0000 </r>
       <r>  -15.6092    1.0000 </r>
       <r>  -12.9220    1.0000 </r>
       <r>  -12.2661    1.0000 </r>
       <r>  -12.2548    1.0000 </r>
       <r>  -11.3498    1.0000 </r>
       <r>  -10.5634    1.0000 </r>
       <r>  -10.5571    1.0000 </r>
       <r>  -10.5453    1.0000 </r>
       <r>   -9.8237    1.0000 </r>
       <r>   -9.8118    1.0000 </r>
       <r>   -9.5986    1.0000 </r>
       <r>   -9.1637    1.0000 </r>
       <r>   -9.1584    1.0000 </r>
       <r>   -8.8324    1.0000 </r>
       <r>   -8.8092    1.0000 </r>
       <r>   -7.8898    1.0000 </r>
       <r>   -7.6992    1.0000 </r>
       <r>   -7.6745    1.0000 </r>
       <r>   -7.0748    1.0000 </r>
       <r>   -6.6697    1.0000 </r>
       <r>   -6.6611    1.0000 </r>
       <r>   -5.8921    1.0000 </r>
       <r>   -5.0092    1.0000 </r>
       <r>   -4.9971    1.0000 </r>
       <r>   -4.6768    1.0000 </r>
       <r>   -1.2219    0.0000 </r>
       <r>   -1.0370    0.0000 </r>
       <r>   -1.0185    0.0000 </r>
       <r>    0.5249    0.0000 </r>
       <r>    1.3912    0.0000 </r>
       <r>    1.4784    0.0000 </r>
       <r>    1.4907    0.0000 </r>
       <r>    1.8999    0.0000 </r>
       <r>    1.9005    0.0000 </r>
       <r>    2.1941    0.0000 </r>
      </set>
      <set comment="kpoint 24">
       <r>  -21.6154    1.0000 </r>
       <r>  -21.2469    1.0000 </r>
       <r>  -21.2404    1.0000 </r>
       <r>  -19.0647    1.0000 </r>
       <r>  -19.0554    1.0000 </r>
       <r>  -18.3557    1.0000 </r>
       <r>  -17.0924    1.0000 </r>
       <r>  -17.0843    1.0000 </r>
       <r>  -16.7135    1.0000 </r>
       <r>  -15.6722    1.0000 </r>
       <r>  -15.6226    1.0000 </r>
       <r>  -15.6092    1.0000 </r>
       <r>  -12.9220    1.0000 </r>
       <r>  -12.2661    1.0000 </r>
       <r>  -12.2547    1.0000 </r>
       <r>  -11.3498    1.0000 </r>
       <r>  -10.5634    1.0000 </r>
       <r>  -10.5571    1.0000 </r>
       <r>  -10.5452    1.0000 </r>
       <r>   -9.8237    1.0000 </r>
       <r>   -9.8118    1.0000 </r>
       <r>   -9.5986    1.0000 </r>
       <r>   -9.1638    1.0000 </r>
       <r>   -9.1584    1.0000 </r>
       <r>   -8.8325    1.0000 </r>
       <r>   -8.8091    1.0000 </r>
       <r>   -7.8898    1.0000 </r>
       <r>   -7.6992    1.0000 </r>
       <r>   -7.6745    1.0000 </r>
       <r>   -7.0748    1.0000 </r>
       <r>   -6.6696    1.0000 </r>
       <r>   -6.6612    1.0000 </r>
       <r>   -5.8921    1.0000 </r>
       <r>   -5.0092    1.0000 </r>
       <r>   -4.9971    1.0000 </r>
       <r>   -4.6768    1.0000 </r>
       <r>   -1.2219    0.0000 </r>
       <r>   -1.0371    0.0000 </r>
       <r>   -1.0185    0.0000 </r>
       <r>    0.5249    0.0000 </r>
       <r>    1.3911    0.0000 </r>
       <r>    1.4785    0.0000 </r>
       <r>    1.4907    0.0000 </r>
       <r>    1.8997    0.0000 </r>
       <r>    1.9007    0.0000 </r>
       <r>    2.1941    0.0000 </r>
      </set>
      <set comment="kpoint 25">
       <r>  -21.6152    1.0000 </r>
       <r>  -21.2502    1.0000 </r>
       <r>  -21.2373    1.0000 </r>
       <r>  -19.0694    1.0000 </r>
       <r>  -19.0511    1.0000 </r>
       <r>  -18.3555    1.0000 </r>
       <r>  -17.0970    1.0000 </r>
       <r>  -17.0833    1.0000 </r>
       <r>  -16.7070    1.0000 </r>
       <r>  -15.6863    1.0000 </r>
       <r>  -15.6173    1.0000 </r>
       <r>  -15.6031    1.0000 </r>
       <r>  -12.9103    1.0000 </r>
       <r>  -12.2761    1.0000 </r>
       <r>  -12.2622    1.0000 </r>
       <r>  -11.3626    1.0000 </r>
       <r>  -10.5554    1.0000 </r>
       <r>  -10.5494    1.0000 </r>
       <r>  -10.5316    1.0000 </r>
       <r>   -9.8294    1.0000 </r>
       <r>   -9.8167    1.0000 </r>
       <r>   -9.5990    1.0000 </r>
       <r>   -9.1661    1.0000 </r>
       <r>   -9.1556    1.0000 </r>
       <r>   -8.8369    1.0000 </r>
       <r>   -8.8114    1.0000 </r>
       <r>   -7.8699    1.0000 </r>
       <r>   -7.6972    1.0000 </r>
       <r>   -7.6695    1.0000 </r>
       <r>   -7.0960    1.0000 </r>
       <r>   -6.6714    1.0000 </r>
       <r>   -6.6553    1.0000 </r>
       <r>   -5.8961    1.0000 </r>
       <r>   -5.0144    1.0000 </r>
       <r>   -5.0037    1.0000 </r>
       <r>   -4.6652    1.0000 </r>
       <r>   -1.2399    0.0000 </r>
       <r>   -1.0241    0.0000 </r>
       <r>   -1.0121    0.0000 </r>
       <r>    0.5347    0.0000 </r>
       <r>    1.3910    0.0000 </r>
       <r>    1.4694    0.0000 </r>
       <r>    1.4876    0.0000 </r>
       <r>    1.8994    0.0000 </r>
       <r>    1.9011    0.0000 </r>
       <r>    2.1940    0.0000 </r>
      </set>
     </set>
    </set>
   </array>
  </eigenvalues>
  <separator name="orbital magnetization" >
   <v name="MAGDIPOLOUT">      0.00000000      0.00000000      0.00000000</v>
  </separator>
  <dos>
   <i name="efermi">     -2.75522602 </i>
   <total>
    <array>
     <dimension dim="1">gridpoints</dimension>
     <dimension dim="2">spin</dimension>
     <field>energy</field>
     <field>total</field>
     <field>integrated</field>
     <set>
      <set comment="spin 1">
       <r>   -23.5113     0.0000     0.0000 </r>
       <r>   -23.4192     0.0000     0.0000 </r>
       <r>   -23.3272     0.0000     0.0000 </r>
       <r>   -23.2351     0.0000     0.0000 </r>
       <r>   -23.1430     0.0000     0.0000 </r>
       <r>   -23.0510     0.0000     0.0000 </r>
       <r>   -22.9589     0.0000     0.0000 </r>
       <r>   -22.8669     0.0000     0.0000 </r>
       <r>   -22.7748     0.0000     0.0000 </r>
       <r>   -22.6827     0.0000     0.0000 </r>
       <r>   -22.5907     0.0000     0.0000 </r>
       <r>   -22.4986     0.0000     0.0000 </r>
       <r>   -22.4066     0.0000     0.0000 </r>
       <r>   -22.3145     0.0236     0.0022 </r>
       <r>   -22.2224     1.1017     0.1036 </r>
       <r>   -22.1304     2.3658     0.3214 </r>
       <r>   -22.0383     3.5653     0.6496 </r>
       <r>   -21.9463     1.5380     0.7912 </r>
       <r>   -21.8542     4.0184     1.1611 </r>
       <r>   -21.7621     2.8376     1.4224 </r>
       <r>   -21.6701     1.1183     1.5253 </r>
       <r>   -21.5780     3.8488     1.8796 </r>
       <r>   -21.4860     3.9047     2.2391 </r>
       <r>   -21.3939     1.6538     2.3913 </r>
       <r>   -21.3019     1.3371     2.5144 </r>
       <r>   -21.2098     4.2554     2.9062 </r>
       <r>   -21.1177     4.6050     3.3301 </r>
       <r>   -21.0257     1.5156     3.4696 </r>
       <r>   -20.9336     1.1214     3.5729 </r>
       <r>   -20.8416     2.3767     3.7917 </r>
       <r>   -20.7495     5.5249     4.3003 </r>
       <r>   -20.6574     2.1241     4.4958 </r>
       <r>   -20.5654     4.2775     4.8896 </r>
       <r>   -20.4733     0.5343     4.9388 </r>
       <r>   -20.3813     0.5331     4.9879 </r>
       <r>   -20.2892     5.1605     5.4630 </r>
       <r>   -20.1971     4.6708     5.8929 </r>
       <r>   -20.1051     2.9001     6.1599 </r>
       <r>   -20.0130     1.1582     6.2666 </r>
       <r>   -19.9210     3.9933     6.6342 </r>
       <r>   -19.8289     0.2101     6.6535 </r>
       <r>   -19.7368     1.3385     6.7767 </r>
       <r>   -19.6448     7.6101     7.4773 </r>
       <r>   -19.5527     2.6243     7.7189 </r>
       <r>   -19.4607     4.1118     8.0974 </r>
       <r>   -19.3686     0.2797     8.1232 </r>
       <r>   -19.2765     1.8368     8.2923 </r>
       <r>   -19.1845     3.3986     8.6051 </r>
       <r>   -19.0924     1.0588     8.7026 </r>
       <r>   -19.0004     4.7077     9.1360 </r>
       <r>   -18.9083     5.7880     9.6689 </r>
       <r>   -18.8162     2.0456     9.8572 </r>
       <r>   -18.7242     4.0749    10.2323 </r>
       <r>   -18.6321     1.0221    10.3264 </r>
       <r>   -18.5401     0.0467    10.3307 </r>
       <r>   -18.4480     3.0336    10.6100 </r>
       <r>   -18.3560     3.9880    10.9771 </r>
       <r>   -18.2639     5.5888    11.4916 </r>
       <r>   -18.1718     2.5237    11.7239 </r>
       <r>   -18.0798     4.2088    12.1114 </r>
       <r>   -17.9877     1.9683    12.2926 </r>
       <r>   -17.8957     3.7815    12.6407 </r>
       <r>   -17.8036     1.4606    12.7752 </r>
       <r>   -17.7115     0.0064    12.7758 </r>
       <r>   -17.6195     1.7567    12.9375 </r>
       <r>   -17.5274     8.6963    13.7381 </r>
       <r>   -17.4354     4.9758    14.1961 </r>
       <r>   -17.3433     1.3868    14.3238 </r>
       <r>   -17.2512     4.8452    14.7698 </r>
       <r>   -17.1592     2.3437    14.9856 </r>
       <r>   -17.0671     3.8465    15.3397 </r>
       <r>   -16.9751     3.0821    15.6234 </r>
       <r>   -16.8830     0.9868    15.7143 </r>
       <r>   -16.7909     1.5419    15.8562 </r>
       <r>   -16.6989     8.7288    16.6598 </r>
       <r>   -16.6068     5.5010    17.1662 </r>
       <r>   -16.5148     0.1895    17.1837 </r>
       <r>   -16.4227     0.0000    17.1837 </r>
       <r>   -16.3306     0.0000    17.1837 </r>
       <r>   -16.2386     0.0405    17.1874 </r>
       <r>   -16.1465     1.7298    17.3466 </r>
       <r>   -16.0545     1.1523    17.4527 </r>
       <r>   -15.9624     4.7893    17.8936 </r>
       <r>   -15.8703     2.8545    18.1564 </r>
       <r>   -15.7783     0.5617    18.2081 </r>
       <r>   -15.6862     3.2240    18.5049 </r>
       <r>   -15.5942     5.3512    18.9975 </r>
       <r>   -15.5021     1.5734    19.1424 </r>
       <r>   -15.4100     0.0596    19.1479 </r>
       <r>   -15.3180     1.6417    19.2990 </r>
       <r>   -15.2259     9.9507    20.2151 </r>
       <r>   -15.1339     3.4195    20.5299 </r>
       <r>   -15.0418     0.9947    20.6214 </r>
       <r>   -14.9498     4.8984    21.0724 </r>
       <r>   -14.8577     4.4377    21.4809 </r>
       <r>   -14.7656     1.2976    21.6004 </r>
       <r>   -14.6736     2.8267    21.8606 </r>
       <r>   -14.5815     8.5199    22.6449 </r>
       <r>   -14.4895     0.9747    22.7346 </r>
       <r>   -14.3974     0.0951    22.7434 </r>
       <r>   -14.3053     3.7534    23.0889 </r>
       <r>   -14.2133     4.1542    23.4714 </r>
       <r>   -14.1212     4.4820    23.8840 </r>
       <r>   -14.0292     0.8915    23.9661 </r>
       <r>   -13.9371     3.3840    24.2776 </r>
       <r>   -13.8450     1.8563    24.4485 </r>
       <r>   -13.7530     1.2583    24.5643 </r>
       <r>   -13.6609     4.0005    24.9326 </r>
       <r>   -13.5689     2.3101    25.1453 </r>
       <r>   -13.4768     4.3317    25.5440 </r>
       <r>   -13.3847     1.4170    25.6745 </r>
       <r>   -13.2927     2.4392    25.8990 </r>
       <r>   -13.2006     3.6883    26.2386 </r>
       <r>   -13.1086     0.0691    26.2449 </r>
       <r>   -13.0165     0.8007    26.3187 </r>
       <r>   -12.9244     9.4292    27.1867 </r>
       <r>   -12.8324     5.0460    27.6512 </r>
       <r>   -12.7403     3.2832    27.9535 </r>
       <r>   -12.6483     0.3587    27.9865 </r>
       <r>   -12.5562     2.1341    28.1830 </r>
       <r>   -12.4641     0.2545    28.2064 </r>
       <r>   -12.3721     1.5804    28.3519 </r>
       <r>   -12.2800     7.9424    29.0831 </r>
       <r>   -12.1880     8.6996    29.8840 </r>
       <r>   -12.0959     2.9965    30.1598 </r>
       <r>   -12.0039     0.0463    30.1641 </r>
       <r>   -11.9118     1.8975    30.3388 </r>
       <r>   -11.8197     3.3927    30.6511 </r>
       <r>   -11.7277     3.6703    30.9890 </r>
       <r>   -11.6356     6.4762    31.5852 </r>
       <r>   -11.5436     0.5156    31.6326 </r>
       <r>   -11.4515     0.2286    31.6537 </r>
       <r>   -11.3594     6.4792    32.2501 </r>
       <r>   -11.2674     6.0500    32.8071 </r>
       <r>   -11.1753     3.3756    33.1179 </r>
       <r>   -11.0833     5.5638    33.6301 </r>
       <r>   -10.9912     4.7009    34.0628 </r>
       <r>   -10.8991     2.8283    34.3232 </r>
       <r>   -10.8071     0.0362    34.3265 </r>
       <r>   -10.7150     0.0033    34.3268 </r>
       <r>   -10.6230     1.4919    34.4642 </r>
       <r>   -10.5309    11.0124    35.4780 </r>
       <r>   -10.4388    10.6792    36.4611 </r>
       <r>   -10.3468     2.8235    36.7210 </r>
       <r>   -10.2547     5.9358    37.2675 </r>
       <r>   -10.1627     2.0529    37.4565 </r>
       <r>   -10.0706     4.2787    37.8503 </r>
       <r>    -9.9785     4.9739    38.3082 </r>
       <r>    -9.8865    10.8212    39.3044 </r>
       <r>    -9.7944    10.0126    40.2262 </r>
       <r>    -9.7024     6.2137    40.7982 </r>
       <r>    -9.6103     8.8070    41.6090 </r>
       <r>    -9.5182     8.8236    42.4213 </r>
       <r>    -9.4262     5.5192    42.9294 </r>
       <r>    -9.3341     3.7788    43.2772 </r>
       <r>    -9.2421    10.3896    44.2337 </r>
       <r>    -9.1500    11.9570    45.3345 </r>
       <r>    -9.0579    14.9024    46.7064 </r>
       <r>    -8.9659     6.7988    47.3323 </r>
       <r>    -8.8738     3.0218    47.6104 </r>
       <r>    -8.7818    12.4933    48.7606 </r>
       <r>    -8.6897     6.8301    49.3893 </r>
       <r>    -8.5977     7.4230    50.0727 </r>
       <r>    -8.5056     7.0746    50.7240 </r>
       <r>    -8.4135     8.0663    51.4666 </r>
       <r>    -8.3215     3.3357    51.7736 </r>
       <r>    -8.2294     4.0384    52.1454 </r>
       <r>    -8.1374     5.5219    52.6538 </r>
       <r>    -8.0453    13.8293    53.9269 </r>
       <r>    -7.9532     5.2354    54.4088 </r>
       <r>    -7.8612     4.9774    54.8671 </r>
       <r>    -7.7691     1.1710    54.9749 </r>
       <r>    -7.6771     8.4243    55.7504 </r>
       <r>    -7.5850     7.0125    56.3960 </r>
       <r>    -7.4929     5.1517    56.8702 </r>
       <r>    -7.4009     2.9252    57.1395 </r>
       <r>    -7.3088     7.3593    57.8170 </r>
       <r>    -7.2168     2.2627    58.0253 </r>
       <r>    -7.1247    10.0337    58.9490 </r>
       <r>    -7.0326     7.8355    59.6703 </r>
       <r>    -6.9406     3.4405    59.9871 </r>
       <r>    -6.8485     3.5874    60.3173 </r>
       <r>    -6.7565     0.1428    60.3305 </r>
       <r>    -6.6644     4.3170    60.7279 </r>
       <r>    -6.5723    10.5576    61.6998 </r>
       <r>    -6.4803     8.8284    62.5125 </r>
       <r>    -6.3882     4.1222    62.8920 </r>
       <r>    -6.2962     4.0296    63.2630 </r>
       <r>    -6.2041     1.7807    63.4269 </r>
       <r>    -6.1120     4.9554    63.8831 </r>
       <r>    -6.0200     4.8110    64.3260 </r>
       <r>    -5.9279     2.8576    64.5891 </r>
       <r>    -5.8359     7.9423    65.3202 </r>
       <r>    -5.7438     7.1469    65.9782 </r>
       <r>    -5.6518     3.4469    66.2955 </r>
       <r>    -5.5597     3.7848    66.6439 </r>
       <r>    -5.4676     1.4821    66.7804 </r>
       <r>    -5.3756     3.1942    67.0744 </r>
       <r>    -5.2835     2.0850    67.2664 </r>
       <r>    -5.1915     1.5247    67.4067 </r>
       <r>    -5.0994     3.2377    67.7048 </r>
       <r>    -5.0073    15.6304    69.1437 </r>
       <r>    -4.9153     6.1455    69.7095 </r>
       <r>    -4.8232     0.0525    69.7143 </r>
       <r>    -4.7312     0.1374    69.7269 </r>
       <r>    -4.6391     2.0643    69.9170 </r>
       <r>    -4.5470     0.4615    69.9595 </r>
       <r>    -4.4550     1.4190    70.0901 </r>
       <r>    -4.3629     3.9625    70.4549 </r>
       <r>    -4.2709     5.0572    70.9204 </r>
       <r>    -4.1788     2.8227    71.1803 </r>
       <r>    -4.0867     0.0366    71.1837 </r>
       <r>    -3.9947     0.0102    71.1846 </r>
       <r>    -3.9026     1.2237    71.2973 </r>
       <r>    -3.8106     1.4089    71.4270 </r>
       <r>    -3.7185     0.0174    71.4286 </r>
       <r>    -3.6264     0.0139    71.4298 </r>
       <r>    -3.5344     2.1918    71.6316 </r>
       <r>    -3.4423     3.0663    71.9139 </r>
       <r>    -3.3503     0.0485    71.9184 </r>
       <r>    -3.2582     0.0000    71.9184 </r>
       <r>    -3.1661     0.0000    71.9184 </r>
       <r>    -3.0741     0.0000    71.9184 </r>
       <r>    -2.9820     0.0000    71.9184 </r>
       <r>    -2.8900     0.0002    71.9184 </r>
       <r>    -2.7979     0.2204    71.9387 </r>
       <r>    -2.7058     1.3928    72.0669 </r>
       <r>    -2.6138     0.1599    72.0816 </r>
       <r>    -2.5217     0.0001    72.0816 </r>
       <r>    -2.4297     0.0000    72.0816 </r>
       <r>    -2.3376     0.0000    72.0816 </r>
       <r>    -2.2456     0.0000    72.0816 </r>
       <r>    -2.1535     0.0001    72.0816 </r>
       <r>    -2.0614     0.2998    72.1092 </r>
       <r>    -1.9694     4.1551    72.4918 </r>
       <r>    -1.8773     0.8645    72.5713 </r>
       <r>    -1.7853     0.0524    72.5762 </r>
       <r>    -1.6932     1.7672    72.7389 </r>
       <r>    -1.6011     0.8384    72.8160 </r>
       <r>    -1.5091     0.0032    72.8163 </r>
       <r>    -1.4170     0.0029    72.8166 </r>
       <r>    -1.3250     1.9269    72.9940 </r>
       <r>    -1.2329    11.4249    74.0458 </r>
       <r>    -1.1408     2.7999    74.3035 </r>
       <r>    -1.0488     3.5083    74.6265 </r>
       <r>    -0.9567     5.8250    75.1627 </r>
       <r>    -0.8647     1.7848    75.3270 </r>
       <r>    -0.7726     4.2568    75.7189 </r>
       <r>    -0.6805     3.3566    76.0279 </r>
       <r>    -0.5885     4.7810    76.4681 </r>
       <r>    -0.4964     2.9823    76.7426 </r>
       <r>    -0.4044     3.7551    77.0883 </r>
       <r>    -0.3123     3.3509    77.3968 </r>
       <r>    -0.2202     5.1972    77.8752 </r>
       <r>    -0.1282     0.9089    77.9589 </r>
       <r>    -0.0361     0.0033    77.9592 </r>
       <r>     0.0559     0.5364    78.0086 </r>
       <r>     0.1480     4.2502    78.3999 </r>
       <r>     0.2401     1.4990    78.5379 </r>
       <r>     0.3321     4.1620    78.9210 </r>
       <r>     0.4242     3.6403    79.2561 </r>
       <r>     0.5162     3.0931    79.5409 </r>
       <r>     0.6083     3.6476    79.8767 </r>
       <r>     0.7003     1.3275    79.9989 </r>
       <r>     0.7924     5.8497    80.5374 </r>
       <r>     0.8845     5.8983    81.0804 </r>
       <r>     0.9765     1.4997    81.2185 </r>
       <r>     1.0686     4.2744    81.6120 </r>
       <r>     1.1606     1.8171    81.7792 </r>
       <r>     1.2527     5.6849    82.3026 </r>
       <r>     1.3448     2.0950    82.4955 </r>
       <r>     1.4368     6.9045    83.1311 </r>
       <r>     1.5289    14.0736    84.4267 </r>
       <r>     1.6209     4.4756    84.8387 </r>
       <r>     1.7130     4.6499    85.2668 </r>
       <r>     1.8051     3.3604    85.5761 </r>
       <r>     1.8971     8.7906    86.3854 </r>
       <r>     1.9892     8.8962    87.2044 </r>
       <r>     2.0812     9.2312    88.0542 </r>
       <r>     2.1733     6.8880    88.6883 </r>
       <r>     2.2654     6.9319    89.3265 </r>
       <r>     2.3574     7.3405    90.0022 </r>
       <r>     2.4495     5.7456    90.5312 </r>
       <r>     2.5415     4.9845    90.9900 </r>
       <r>     2.6336     1.7733    91.1533 </r>
       <r>     2.7257     1.9581    91.3335 </r>
       <r>     2.8177     4.5945    91.7565 </r>
       <r>     2.9098     2.5152    91.9880 </r>
       <r>     3.0018     0.1299    92.0000 </r>
       <r>     3.0939     0.0000    92.0000 </r>
       <r>     3.1860     0.0000    92.0000 </r>
       <r>     3.2780     0.0000    92.0000 </r>
       <r>     3.3701     0.0000    92.0000 </r>
       <r>     3.4621     0.0000    92.0000 </r>
       <r>     3.5542     0.0000    92.0000 </r>
       <r>     3.6463     0.0000    92.0000 </r>
       <r>     3.7383     0.0000    92.0000 </r>
       <r>     3.8304     0.0000    92.0000 </r>
       <r>     3.9224     0.0000    92.0000 </r>
       <r>     4.0145     0.0000    92.0000 </r>
       <r>     4.1065     0.0000    92.0000 </r>
      </set>
     </set>
    </array>
   </total>
  </dos>
 </calculation>
 <structure name="finalpos" >
  <crystal>
   <varray name="basis" >
    <v>       7.40170591       0.00000000       0.00000000 </v>
    <v>      -3.70085295       6.41006527       0.00000000 </v>
    <v>       0.00000000       0.00000000      20.00000000 </v>
   </varray>
   <i name="volume">    948.90835877 </i>
   <varray name="rec_basis" >
    <v>       0.13510399       0.07800233       0.00000000 </v>
    <v>       0.00000000       0.15600465       0.00000000 </v>
    <v>       0.00000000       0.00000000       0.05000000 </v>
   </varray>
  </crystal>
  <varray name="positions" >
   <v>       0.00000000       0.00000000       0.50050000 </v>
   <v>       0.33333333       0.00000000       0.50000000 </v>
   <v>       0.66666667       0.00000000       0.50000000 </v>
   <v>       0.00000000       0.33333333       0.50000000 </v>
   <v>       0.33333333       0.33333333       0.50000000 </v>
   <v>       0.66666667       0.33333333       0.50000000 </v>
   <v>       0.00000000       0.66666667       0.50000000 </v>
   <v>       0.33333333       0.66666667       0.50000000 </v>
   <v>       0.66666667       0.66666667       0.50000000 </v>
   <v>       0.22300225       0.11267116       0.50000000 </v>
   <v>       0.55555556       0.11111111       0.50000000 </v>
   <v>       0.88888889       0.11111111       0.50000000 </v>
   <v>       0.22222222       0.44444444       0.50000000 </v>
   <v>       0.55555556       0.44444444       0.50000000 </v>
   <v>       0.88888889       0.44444444       0.50000000 </v>
   <v>       0.22222222       0.77777778       0.50000000 </v>
   <v>       0.55555556       0.77777778       0.50000000 </v>
   <v>       0.88888889       0.77777778       0.50000000 </v>
  </varray>
 </structure>
</modeling>
