<?xml version="1.0" encoding="ISO-8859-1"?>
<modeling>
 <generator>
  <i name="program" type="string">vasp </i>
  <i name="version" type="string">6.4.1  </i>
  <i name="subversion" type="string">05Apr23 (build Feb 12 2025 00:37:39) complex                          parallel </i>
  <i name="platform" type="string">LinuxIFC </i>
  <i name="date" type="string">2025 02 14 </i>
  <i name="time" type="string">04:41:33 </i>
 </generator>
 <incar>
  <i type="string" name="SYSTEM">SCF</i>
  <i type="int" name="ISTART">     0</i>
  <i type="int" name="ICHARG">     2</i>
  <i type="int" name="NELM">    60</i>
  <i type="int" name="NELMIN">     6</i>
  <i name="EDIFF">      0.00000100</i>
  <i name="EDIFFG">     -0.00000100</i>
  <i name="ENCUT">    600.00000000</i>
  <i type="string" name="LREAL">Auto</i>
  <i type="int" name="ISMEAR">     0</i>
  <i name="SIGMA">      0.05000000</i>
  <i type="logical" name="LWAVE"> F  </i>
  <i type="logical" name="LCHARG"> F  </i>
 </incar>
 <primitive_cell>
  <structure name="primitive_cell" >
   <crystal>
    <varray name="basis" >
     <v>       7.40170591       0.00000000       0.00000000 </v>
     <v>      -3.70085295       6.41006527       0.00000000 </v>
     <v>       0.00000000       0.00000000      20.00000000 </v>
    </varray>
    <i name="volume">    948.90835877 </i>
    <varray name="rec_basis" >
     <v>       0.13510399       0.07800233       0.00000000 </v>
     <v>       0.00000000       0.15600465       0.00000000 </v>
     <v>       0.00000000       0.00000000       0.05000000 </v>
    </varray>
   </crystal>
   <varray name="positions" >
    <v>       0.00000000       0.00000000       0.49950000 </v>
    <v>       0.33333333       0.00000000       0.50000000 </v>
    <v>       0.66666667       0.00000000       0.50000000 </v>
    <v>       1.00000000       0.33333333       0.50000000 </v>
    <v>       0.33333333       0.33333333       0.50000000 </v>
    <v>       0.66666667       0.33333333       0.50000000 </v>
    <v>       1.00000000       0.66666667       0.50000000 </v>
    <v>       0.33333333       0.66666667       0.50000000 </v>
    <v>       0.66666667       0.66666667       0.50000000 </v>
    <v>       0.22222222       0.11111111       0.50050000 </v>
    <v>       0.55555556       0.11111111       0.50000000 </v>
    <v>       0.88888889       0.11111111       0.50000000 </v>
    <v>       0.22222222       0.44444444       0.50000000 </v>
    <v>       0.55555556       0.44444444       0.50000000 </v>
    <v>       0.88888889       0.44444444       0.50000000 </v>
    <v>       0.22222222       0.77777778       0.50000000 </v>
    <v>       0.55555556       0.77777778       0.50000000 </v>
    <v>       0.88888889       0.77777778       0.50000000 </v>
   </varray>
  </structure>
  <varray name="primitive_index" >
   <v type="int" >        1 </v>
   <v type="int" >        2 </v>
   <v type="int" >        3 </v>
   <v type="int" >        4 </v>
   <v type="int" >        5 </v>
   <v type="int" >        6 </v>
   <v type="int" >        7 </v>
   <v type="int" >        8 </v>
   <v type="int" >        9 </v>
   <v type="int" >       10 </v>
   <v type="int" >       11 </v>
   <v type="int" >       12 </v>
   <v type="int" >       13 </v>
   <v type="int" >       14 </v>
   <v type="int" >       15 </v>
   <v type="int" >       16 </v>
   <v type="int" >       17 </v>
   <v type="int" >       18 </v>
  </varray>
 </primitive_cell>
 <kpoints>
  <generation param="Gamma">
   <v type="int" name="divisions">       7        7        1 </v>
   <v name="usershift">      0.00000000       0.00000000       0.00000000 </v>
   <v name="genvec1">      0.14285714       0.00000000       0.00000000 </v>
   <v name="genvec2">      0.00000000       0.14285714       0.00000000 </v>
   <v name="genvec3">      0.00000000       0.00000000       1.00000000 </v>
   <v name="shift">      0.00000000       0.00000000       0.00000000 </v>
  </generation>
  <varray name="kpointlist" >
   <v>       0.00000000       0.00000000       0.00000000 </v>
   <v>       0.14285714       0.00000000       0.00000000 </v>
   <v>       0.00000000       0.14285714       0.00000000 </v>
   <v>       0.28571429       0.00000000       0.00000000 </v>
   <v>       0.00000000       0.28571429       0.00000000 </v>
   <v>       0.42857143       0.00000000       0.00000000 </v>
   <v>       0.00000000       0.42857143       0.00000000 </v>
   <v>       0.14285714       0.14285714       0.00000000 </v>
   <v>      -0.14285714       0.28571429       0.00000000 </v>
   <v>       0.28571429       0.14285714       0.00000000 </v>
   <v>      -0.14285714       0.42857143       0.00000000 </v>
   <v>      -0.42857143       0.28571429       0.00000000 </v>
   <v>       0.42857143       0.14285714       0.00000000 </v>
   <v>      -0.14285714      -0.42857143       0.00000000 </v>
   <v>       0.28571429       0.28571429       0.00000000 </v>
   <v>      -0.28571429      -0.42857143       0.00000000 </v>
  </varray>
  <varray name="weights" >
   <v>       0.02040816 </v>
   <v>       0.04081633 </v>
   <v>       0.08163265 </v>
   <v>       0.04081633 </v>
   <v>       0.08163265 </v>
   <v>       0.04081633 </v>
   <v>       0.08163265 </v>
   <v>       0.08163265 </v>
   <v>       0.04081633 </v>
   <v>       0.08163265 </v>
   <v>       0.08163265 </v>
   <v>       0.08163265 </v>
   <v>       0.04081633 </v>
   <v>       0.08163265 </v>
   <v>       0.08163265 </v>
   <v>       0.04081633 </v>
  </varray>
 </kpoints>
 <parameters>
  <separator name="general" >
   <i type="string" name="SYSTEM">SCF</i>
   <i type="logical" name="LCOMPAT"> F  </i>
  </separator>
  <separator name="electronic" >
   <i type="string" name="PREC">normal</i>
   <i name="ENMAX">    600.00000000</i>
   <i name="ENAUG">    644.87300000</i>
   <i name="EDIFF">      0.00000100</i>
   <i type="int" name="IALGO">    38</i>
   <i type="int" name="IWAVPR">    10</i>
   <i type="int" name="NBANDS">    46</i>
   <i type="int" name="NBANDSLOW">    -1</i>
   <i type="int" name="NBANDSHIGH">    -1</i>
   <i name="NELECT">     72.00000000</i>
   <i type="int" name="TURBO">     0</i>
   <i type="int" name="IRESTART">     0</i>
   <i type="int" name="NREBOOT">     0</i>
   <i type="int" name="NMIN">     0</i>
   <i name="EREF">      0.00000000</i>
   <separator name="electronic smearing" >
    <i type="int" name="ISMEAR">     0</i>
    <i name="SIGMA">      0.05000000</i>
    <i name="KSPACING">      0.50000000</i>
    <i type="logical" name="KGAMMA"> T  </i>
    <i type="logical" name="KBLOWUP"> T  </i>
   </separator>
   <separator name="electronic projectors" >
    <i type="logical" name="LREAL"> T  </i>
    <v name="ROPT">     -0.00050000</v>
    <i type="int" name="LMAXPAW">  -100</i>
    <i type="int" name="LMAXMIX">     2</i>
    <i type="logical" name="NLSPLINE"> F  </i>
   </separator>
   <separator name="electronic startup" >
    <i type="int" name="ISTART">     0</i>
    <i type="int" name="ICHARG">     2</i>
    <i type="int" name="INIWAV">     1</i>
   </separator>
   <separator name="electronic spin" >
    <i type="int" name="ISPIN">     1</i>
    <i type="logical" name="LNONCOLLINEAR"> F  </i>
    <v name="MAGMOM">      1.00000000      1.00000000      1.00000000      1.00000000      1.00000000      1.00000000      1.00000000      1.00000000      1.00000000      1.00000000      1.00000000      1.00000000      1.00000000      1.00000000      1.00000000      1.00000000      1.00000000      1.00000000</v>
    <i name="NUPDOWN">     -1.00000000</i>
    <i type="logical" name="LSORBIT"> F  </i>
    <v name="SAXIS">      0.00000000      0.00000000      1.00000000</v>
    <i type="logical" name="LSPIRAL"> F  </i>
    <v name="QSPIRAL">      0.00000000      0.00000000      0.00000000</v>
    <i type="logical" name="LZEROZ"> F  </i>
   </separator>
   <separator name="electronic exchange-correlation" >
    <i type="logical" name="LASPH"> F  </i>
    <i type="logical" name="LMETAGGA"> F  </i>
   </separator>
   <separator name="electronic convergence" >
    <i type="int" name="NELM">    60</i>
    <i type="int" name="NELMDL">    -5</i>
    <i type="int" name="NELMIN">     6</i>
    <i name="ENINI">    600.00000000</i>
    <separator name="electronic convergence detail" >
     <i type="logical" name="LDIAG"> T  </i>
     <i type="logical" name="LSUBROT"> F  </i>
     <i name="WEIMIN">      0.00000000</i>
     <i name="EBREAK">      0.00000000</i>
     <i name="DEPER">      0.30000000</i>
     <i type="int" name="NRMM">     4</i>
     <i name="TIME">      0.40000000</i>
    </separator>
   </separator>
   <separator name="electronic mixer" >
    <i name="AMIX">      0.40000000</i>
    <i name="BMIX">      1.00000000</i>
    <i name="AMIN">      0.10000000</i>
    <i name="AMIX_MAG">      1.60000000</i>
    <i name="BMIX_MAG">      1.00000000</i>
    <separator name="electronic mixer details" >
     <i type="int" name="IMIX">     4</i>
     <i type="logical" name="MIXFIRST"> F  </i>
     <i type="int" name="MAXMIX">   -45</i>
     <i name="WC">    100.00000000</i>
     <i type="int" name="INIMIX">     1</i>
     <i type="int" name="MIXPRE">     1</i>
     <i type="int" name="MREMOVE">     5</i>
    </separator>
   </separator>
   <separator name="electronic dipolcorrection" >
    <i type="logical" name="LDIPOL"> F  </i>
    <i type="logical" name="LMONO"> F  </i>
    <i type="int" name="IDIPOL">     0</i>
    <i name="EPSILON">      1.00000000</i>
    <v name="DIPOL">   -100.00000000   -100.00000000   -100.00000000</v>
    <i name="EFIELD">      0.00000000</i>
   </separator>
  </separator>
  <separator name="grids" >
   <i type="int" name="NGX">    48</i>
   <i type="int" name="NGY">    48</i>
   <i type="int" name="NGZ">   120</i>
   <i type="int" name="NGXF">    96</i>
   <i type="int" name="NGYF">    96</i>
   <i type="int" name="NGZF">   240</i>
   <i type="logical" name="ADDGRID"> F  </i>
  </separator>
  <separator name="ionic" >
   <i type="int" name="NSW">     0</i>
   <i type="int" name="IBRION">    -1</i>
   <i type="int" name="MDALGO">     0</i>
   <i type="int" name="ISIF">     2</i>
   <i name="PSTRESS">      0.00000000</i>
   <i name="EDIFFG">     -0.00000100</i>
   <i type="int" name="NFREE">     0</i>
   <i name="POTIM">      0.50000000</i>
   <i name="SMASS">     -3.00000000</i>
   <i name="SCALEE">      1.00000000</i>
  </separator>
  <separator name="ionic md" >
   <i name="TEBEG">      0.00010000</i>
   <i name="TEEND">      0.00010000</i>
   <i type="int" name="NBLOCK">     1</i>
   <i type="int" name="KBLOCK">     1</i>
   <i type="int" name="NPACO">   256</i>
   <i name="APACO">     10.00000000</i>
  </separator>
  <separator name="symmetry" >
   <i type="int" name="ISYM">     2</i>
   <i name="SYMPREC">      0.00001000</i>
  </separator>
  <separator name="dos" >
   <i type="int" name="LORBIT">     0</i>
   <v name="RWIGS">     -1.00000000</v>
   <i type="int" name="NEDOS">   301</i>
   <i name="EMIN">     10.00000000</i>
   <i name="EMAX">    -10.00000000</i>
   <i name="EFERMI">      0.00000000</i>
  </separator>
  <separator name="writing" >
   <i type="int" name="NWRITE">     2</i>
   <i type="logical" name="LWAVE"> F  </i>
   <i type="logical" name="LDOWNSAMPLE"> F  </i>
   <i type="logical" name="LCHARG"> F  </i>
   <i type="logical" name="LPARD"> F  </i>
   <i type="logical" name="LVTOT"> F  </i>
   <i type="logical" name="LVHAR"> F  </i>
   <i type="logical" name="LELF"> F  </i>
   <i type="logical" name="LOPTICS"> F  </i>
   <v name="STM">      0.00000000      0.00000000      0.00000000      0.00000000      0.00000000      0.00000000      0.00000000</v>
  </separator>
  <separator name="performance" >
   <i type="int" name="NPAR">     2</i>
   <i type="int" name="NSIM">     4</i>
   <i type="int" name="NBLK">    -1</i>
   <i type="logical" name="LPLANE"> T  </i>
   <i type="logical" name="LSCALAPACK"> T  </i>
   <i type="logical" name="LSCAAWARE"> F  </i>
   <i type="logical" name="LSCALU"> F  </i>
   <i type="logical" name="LASYNC"> F  </i>
   <i type="logical" name="LORBITALREAL"> F  </i>
  </separator>
  <separator name="miscellaneous" >
   <i type="int" name="IDIOT">     3</i>
   <i type="int" name="PHON_NSTRUCT">    -1</i>
   <i type="logical" name="LMUSIC"> F  </i>
   <v name="POMASS">     12.01100000</v>
   <v name="DARWINR">      0.00000000</v>
   <v name="DARWINV">      1.00000000</v>
   <i type="logical" name="LCORR"> T  </i>
  </separator>
  <i type="logical" name="GGA_COMPAT"> T  </i>
  <i type="logical" name="LBERRY"> F  </i>
  <i type="int" name="ICORELEVEL">     0</i>
  <i type="logical" name="LDAU"> F  </i>
  <i type="int" name="I_CONSTRAINED_M">     0</i>
  <separator name="electronic exchange-correlation" >
   <i type="string" name="GGA">--</i>
   <i type="int" name="VOSKOWN">     0</i>
   <i type="logical" name="LHFCALC"> F  </i>
   <i type="string" name="PRECFOCK"></i>
   <i type="logical" name="LSYMGRAD"> F  </i>
   <i type="logical" name="LHFONE"> F  </i>
   <i type="logical" name="LRHFCALC"> F  </i>
   <i type="logical" name="LTHOMAS"> F  </i>
   <i type="logical" name="LMODELHF"> F  </i>
   <i type="logical" name="LFOCKACE"> F  </i>
   <i name="ENCUT4O">     -1.00000000</i>
   <i type="int" name="EXXOEP">     0</i>
   <i type="int" name="FOURORBIT">     0</i>
   <i name="AEXX">      0.00000000</i>
   <i name="HFALPHA">      0.00000000</i>
   <i name="MCALPHA">      0.00000000</i>
   <i name="ALDAX">      1.00000000</i>
   <i name="AGGAX">      1.00000000</i>
   <i name="ALDAC">      1.00000000</i>
   <i name="AGGAC">      1.00000000</i>
   <i type="int" name="NKREDX">     1</i>
   <i type="int" name="NKREDY">     1</i>
   <i type="int" name="NKREDZ">     1</i>
   <i type="logical" name="SHIFTRED"> F  </i>
   <i type="logical" name="ODDONLY"> F  </i>
   <i type="logical" name="EVENONLY"> F  </i>
   <i type="int" name="LMAXFOCK">     0</i>
   <i type="int" name="NMAXFOCKAE">     0</i>
   <i type="logical" name="LFOCKAEDFT"> F  </i>
   <i name="HFSCREEN">      0.00000000</i>
   <i name="HFSCREENC">      0.00000000</i>
   <i type="int" name="NBANDSGWLOW">     0</i>
  </separator>
  <separator name="vdW DFT" >
   <i type="logical" name="LUSE_VDW"> F  </i>
   <i type="int" name="IVDW_NL">     1</i>
   <i type="logical" name="LSPIN_VDW"> F  </i>
   <i name="Zab_VDW">     -0.84910000</i>
   <i name="PARAM1">      0.12340000</i>
   <i name="PARAM2">      1.00000000</i>
   <i name="PARAM3">      0.00000000</i>
  </separator>
  <separator name="model GW" >
   <i type="int" name="MODEL_GW">     0</i>
   <i name="MODEL_EPS0">     31.63027863</i>
   <i name="MODEL_ALPHA">      1.00000000</i>
  </separator>
  <separator name="linear response parameters" >
   <i type="logical" name="LEPSILON"> F  </i>
   <i type="logical" name="LRPA"> F  </i>
   <i type="logical" name="LNABLA"> F  </i>
   <i type="logical" name="LVEL"> F  </i>
   <i name="CSHIFT">      0.10000000</i>
   <i name="OMEGAMAX">     -1.00000000</i>
   <i name="DEG_THRESHOLD">      0.00200000</i>
   <i name="RTIME">     -0.10000000</i>
   <i name="WPLASMAI">      0.00000000</i>
   <v name="DFIELD">      0.00000000      0.00000000      0.00000000</v>
   <v name="WPLASMA">      0.00000000      0.00000000      0.00000000      0.00000000      0.00000000      0.00000000      0.00000000      0.00000000      0.00000000</v>
  </separator>
  <separator name="orbital magnetization" >
   <i type="logical" name="NUCIND"> F  </i>
   <v name="MAGPOS">      0.00000000      0.00000000      0.00000000</v>
   <i type="logical" name="LNICSALL"> T  </i>
   <i type="logical" name="ORBITALMAG"> F  </i>
   <i type="logical" name="LMAGBLOCH"> F  </i>
   <i type="logical" name="LCHIMAG"> F  </i>
   <i type="logical" name="LGAUGE"> T  </i>
   <i type="int" name="MAGATOM">     0</i>
   <v name="MAGDIPOL">      0.00000000      0.00000000      0.00000000</v>
   <v name="AVECCONST">      0.00000000      0.00000000      0.00000000</v>
  </separator>
  <separator name="response functions" >
   <i type="logical" name="LALL_IN_ONE"> F  </i>
   <i type="int" name="IALL_IN_ONE">    -1</i>
   <i type="int" name="NBANDS_WAVE">    -1</i>
   <i type="logical" name="LFINITE_TEMPERATURE"> F  </i>
   <i type="logical" name="LADDER"> F  </i>
   <i type="logical" name="LRPAFORCE"> F  </i>
   <i type="logical" name="LFXC"> F  </i>
   <i type="logical" name="LHARTREE"> T  </i>
   <i type="int" name="IBSE">     0</i>
   <v type="int" name="KPOINT">    -1     0     0     0</v>
   <i type="logical" name="LTCTC"> F  </i>
   <i type="logical" name="LTCTE"> F  </i>
   <i type="logical" name="LTETE"> F  </i>
   <i type="logical" name="LTRIPLET"> F  </i>
   <i type="logical" name="LFXCEPS"> F  </i>
   <i type="logical" name="LFXHEG"> F  </i>
   <i type="int" name="NATURALO">     2</i>
   <i type="logical" name="LHOLEGF"> F  </i>
   <i type="logical" name="L2ORDER"> F  </i>
   <i type="logical" name="LDMP1"> F  </i>
   <i type="logical" name="LMP2LT"> F  </i>
   <i type="logical" name="LSMP2LT"> F  </i>
   <i type="logical" name="LGWLF"> F  </i>
   <i name="ENCUTGW">     -1.60000002</i>
   <i name="ENCUTGWSOFT">     -1.60000002</i>
   <i name="ENCUTLF">     -1.00000000</i>
   <i type="logical" name="LESF_SPLINES"> F  </i>
   <i type="int" name="LMAXMP2">    -1</i>
   <i name="SCISSOR">      0.00000000</i>
   <i type="int" name="NOMEGA">     0</i>
   <i type="int" name="NOMEGAR">     0</i>
   <i type="int" name="NBANDSGW">    -1</i>
   <i type="int" name="NBANDSO">    -1</i>
   <i type="int" name="NBANDSV">    -1</i>
   <i type="int" name="NELMGW">     1</i>
   <i type="int" name="NELMHF">     1</i>
   <i type="int" name="DIM">     3</i>
   <i type="int" name="IESPILON">     4</i>
   <i type="int" name="ANTIRES">     0</i>
   <i name="OMEGAMAX">    -30.00000000</i>
   <i name="OMEGAMIN">    -30.00000000</i>
   <i name="OMEGATL">   -200.00000000</i>
   <i type="int" name="OMEGAGRID">     0</i>
   <i name="CSHIFT">     -0.10000000</i>
   <i type="logical" name="LSELFENERGY"> F  </i>
   <i type="logical" name="LSPECTRAL"> F  </i>
   <i type="logical" name="LSPECTRALGW"> F  </i>
   <i type="logical" name="LSINGLES"> F  </i>
   <i type="logical" name="LFERMIGW"> F  </i>
   <i type="logical" name="ODDONLYGW"> F  </i>
   <i type="logical" name="EVENONLYGW"> F  </i>
   <i type="int" name="NKREDLFX">     1</i>
   <i type="int" name="NKREDLFY">     1</i>
   <i type="int" name="NKREDLFZ">     1</i>
   <i type="int" name="MAXMEM">  2800</i>
   <i type="int" name="TELESCOPE">     0</i>
   <i type="int" name="NTAUPAR">    -1</i>
   <i type="int" name="NOMEGAPAR">    -1</i>
   <i name="DAMP_NEWTON">      0.80000001</i>
   <i name="LAMBDA">      1.00000000</i>
  </separator>
  <separator name="External order field" >
   <i name="OFIELD_KAPPA">      0.00000000</i>
   <v name="OFIELD_K">      0.00000000      0.00000000      0.00000000</v>
   <i name="OFIELD_Q6_NEAR">      0.00000000</i>
   <i name="OFIELD_Q6_FAR">      0.00000000</i>
   <i name="OFIELD_A">      0.00000000</i>
  </separator>
  <separator name="optional k-points parameters" >
   <i type="int" name="KPOINTS_OPT_MODE">     1</i>
   <i type="logical" name="LKPOINTS_OPT"> F  </i>
  </separator>
 </parameters>
 <atominfo>
  <atoms>      18 </atoms>
  <types>       1 </types>
  <array name="atoms" >
   <dimension dim="1">ion</dimension>
   <field type="string">element</field>
   <field type="int">atomtype</field>
   <set>
    <rc><c>C </c><c>   1</c></rc>
    <rc><c>C </c><c>   1</c></rc>
    <rc><c>C </c><c>   1</c></rc>
    <rc><c>C </c><c>   1</c></rc>
    <rc><c>C </c><c>   1</c></rc>
    <rc><c>C </c><c>   1</c></rc>
    <rc><c>C </c><c>   1</c></rc>
    <rc><c>C </c><c>   1</c></rc>
    <rc><c>C </c><c>   1</c></rc>
    <rc><c>C </c><c>   1</c></rc>
    <rc><c>C </c><c>   1</c></rc>
    <rc><c>C </c><c>   1</c></rc>
    <rc><c>C </c><c>   1</c></rc>
    <rc><c>C </c><c>   1</c></rc>
    <rc><c>C </c><c>   1</c></rc>
    <rc><c>C </c><c>   1</c></rc>
    <rc><c>C </c><c>   1</c></rc>
    <rc><c>C </c><c>   1</c></rc>
   </set>
  </array>
  <array name="atomtypes" >
   <dimension dim="1">type</dimension>
   <field type="int">atomspertype</field>
   <field type="string">element</field>
   <field>mass</field>
   <field>valence</field>
   <field type="string">pseudopotential</field>
   <set>
    <rc><c>  18</c><c>C </c><c>     12.01100000</c><c>      4.00000000</c><c>  PAW_PBE C 08Apr2002                   </c></rc>
   </set>
  </array>
 </atominfo>
 <structure name="initialpos" >
  <crystal>
   <varray name="basis" >
    <v>       7.40170591       0.00000000       0.00000000 </v>
    <v>      -3.70085295       6.41006527       0.00000000 </v>
    <v>       0.00000000       0.00000000      20.00000000 </v>
   </varray>
   <i name="volume">    948.90835877 </i>
   <varray name="rec_basis" >
    <v>       0.13510399       0.07800233       0.00000000 </v>
    <v>       0.00000000       0.15600465       0.00000000 </v>
    <v>       0.00000000       0.00000000       0.05000000 </v>
   </varray>
  </crystal>
  <varray name="positions" >
   <v>       0.00000000       0.00000000       0.49950000 </v>
   <v>       0.33333333       0.00000000       0.50000000 </v>
   <v>       0.66666667       0.00000000       0.50000000 </v>
   <v>       0.00000000       0.33333333       0.50000000 </v>
   <v>       0.33333333       0.33333333       0.50000000 </v>
   <v>       0.66666667       0.33333333       0.50000000 </v>
   <v>       0.00000000       0.66666667       0.50000000 </v>
   <v>       0.33333333       0.66666667       0.50000000 </v>
   <v>       0.66666667       0.66666667       0.50000000 </v>
   <v>       0.22222222       0.11111111       0.50050000 </v>
   <v>       0.55555556       0.11111111       0.50000000 </v>
   <v>       0.88888889       0.11111111       0.50000000 </v>
   <v>       0.22222222       0.44444444       0.50000000 </v>
   <v>       0.55555556       0.44444444       0.50000000 </v>
   <v>       0.88888889       0.44444444       0.50000000 </v>
   <v>       0.22222222       0.77777778       0.50000000 </v>
   <v>       0.55555556       0.77777778       0.50000000 </v>
   <v>       0.88888889       0.77777778       0.50000000 </v>
  </varray>
 </structure>
 <calculation>
  <scstep>
   <time name="dav">    3.79    3.93</time>
   <time name="total">    3.88    4.02</time>
   <energy>
    <i name="alphaZ">     28.04858418 </i>
    <i name="ewald">  11638.79600463 </i>
    <i name="hartreedc"> -13553.12871425 </i>
    <i name="XCdc">    237.17673374 </i>
    <i name="pawpsdc">   1953.39683484 </i>
    <i name="pawaedc">  -1963.64613940 </i>
    <i name="eentropy">     -0.01355684 </i>
    <i name="bandstr">   -251.06336720 </i>
    <i name="atom">   2648.70517965 </i>
    <i name="e_fr_energy">    738.27155936 </i>
    <i name="e_wo_entrp">    738.28511620 </i>
    <i name="e_0_energy">    738.27833778 </i>
   </energy>
  </scstep>
  <scstep>
   <time name="dav">    5.12    5.31</time>
   <time name="total">    5.12    5.31</time>
   <energy>
    <i name="e_fr_energy">    -24.75213359 </i>
    <i name="e_wo_entrp">    -24.75188705 </i>
    <i name="e_0_energy">    -24.75201032 </i>
   </energy>
  </scstep>
  <scstep>
   <time name="dav">    4.13    4.29</time>
   <time name="total">    4.13    4.29</time>
   <energy>
    <i name="e_fr_energy">   -172.41598916 </i>
    <i name="e_wo_entrp">   -172.41468098 </i>
    <i name="e_0_energy">   -172.41533507 </i>
   </energy>
  </scstep>
  <scstep>
   <time name="dav">    4.11    4.26</time>
   <time name="total">    4.11    4.26</time>
   <energy>
    <i name="e_fr_energy">   -177.35417180 </i>
    <i name="e_wo_entrp">   -177.35187839 </i>
    <i name="e_0_energy">   -177.35302509 </i>
   </energy>
  </scstep>
  <scstep>
   <time name="dav">    4.58    4.76</time>
   <time name="total">    4.76    4.94</time>
   <energy>
    <i name="e_fr_energy">   -177.48608603 </i>
    <i name="e_wo_entrp">   -177.48378321 </i>
    <i name="e_0_energy">   -177.48493462 </i>
   </energy>
  </scstep>
  <scstep>
   <time name="dav">    3.89    2.86</time>
   <time name="total">    4.14    3.12</time>
   <energy>
    <i name="e_fr_energy">   -169.31965075 </i>
    <i name="e_wo_entrp">   -169.31734794 </i>
    <i name="e_0_energy">   -169.31849935 </i>
   </energy>
  </scstep>
  <scstep>
   <time name="dav">    3.79    3.93</time>
   <time name="total">    4.05    4.20</time>
   <energy>
    <i name="e_fr_energy">   -166.15232453 </i>
    <i name="e_wo_entrp">   -166.15002172 </i>
    <i name="e_0_energy">   -166.15117313 </i>
   </energy>
  </scstep>
  <scstep>
   <time name="dav">    3.97    4.12</time>
   <time name="total">    4.23    4.40</time>
   <energy>
    <i name="e_fr_energy">   -166.08925923 </i>
    <i name="e_wo_entrp">   -166.08695643 </i>
    <i name="e_0_energy">   -166.08810783 </i>
   </energy>
  </scstep>
  <scstep>
   <time name="dav">    4.15    4.31</time>
   <time name="total">    4.42    4.58</time>
   <energy>
    <i name="e_fr_energy">   -166.07642470 </i>
    <i name="e_wo_entrp">   -166.07412189 </i>
    <i name="e_0_energy">   -166.07527330 </i>
   </energy>
  </scstep>
  <scstep>
   <time name="dav">    3.75    3.89</time>
   <time name="total">    4.01    4.16</time>
   <energy>
    <i name="e_fr_energy">   -166.05767212 </i>
    <i name="e_wo_entrp">   -166.05536931 </i>
    <i name="e_0_energy">   -166.05652072 </i>
   </energy>
  </scstep>
  <scstep>
   <time name="dav">    3.77    3.91</time>
   <time name="total">    4.03    4.18</time>
   <energy>
    <i name="e_fr_energy">   -166.06240045 </i>
    <i name="e_wo_entrp">   -166.06009764 </i>
    <i name="e_0_energy">   -166.06124904 </i>
   </energy>
  </scstep>
  <scstep>
   <time name="dav">    3.59    3.72</time>
   <time name="total">    3.85    3.99</time>
   <energy>
    <i name="e_fr_energy">   -166.06681975 </i>
    <i name="e_wo_entrp">   -166.06451694 </i>
    <i name="e_0_energy">   -166.06566835 </i>
   </energy>
  </scstep>
  <scstep>
   <time name="dav">    3.84    3.98</time>
   <time name="total">    4.11    4.26</time>
   <energy>
    <i name="e_fr_energy">   -166.07196252 </i>
    <i name="e_wo_entrp">   -166.06965971 </i>
    <i name="e_0_energy">   -166.07081112 </i>
   </energy>
  </scstep>
  <scstep>
   <time name="dav">    3.67    2.66</time>
   <time name="total">    3.93    2.93</time>
   <energy>
    <i name="e_fr_energy">   -166.07483462 </i>
    <i name="e_wo_entrp">   -166.07253181 </i>
    <i name="e_0_energy">   -166.07368322 </i>
   </energy>
  </scstep>
  <scstep>
   <time name="dav">    4.05    4.20</time>
   <time name="total">    4.31    4.47</time>
   <energy>
    <i name="e_fr_energy">   -166.07558798 </i>
    <i name="e_wo_entrp">   -166.07328517 </i>
    <i name="e_0_energy">   -166.07443658 </i>
   </energy>
  </scstep>
  <scstep>
   <time name="dav">    3.52    3.66</time>
   <time name="total">    3.78    3.93</time>
   <energy>
    <i name="e_fr_energy">   -166.07572815 </i>
    <i name="e_wo_entrp">   -166.07342534 </i>
    <i name="e_0_energy">   -166.07457674 </i>
   </energy>
  </scstep>
  <scstep>
   <time name="dav">    3.23    3.36</time>
   <time name="total">    3.49    3.63</time>
   <energy>
    <i name="e_fr_energy">   -166.07579181 </i>
    <i name="e_wo_entrp">   -166.07348900 </i>
    <i name="e_0_energy">   -166.07464040 </i>
   </energy>
  </scstep>
  <scstep>
   <time name="dav">    3.41    3.54</time>
   <time name="total">    3.67    3.81</time>
   <energy>
    <i name="e_fr_energy">   -166.07582491 </i>
    <i name="e_wo_entrp">   -166.07352210 </i>
    <i name="e_0_energy">   -166.07467350 </i>
   </energy>
  </scstep>
  <scstep>
   <time name="dav">    3.38    3.52</time>
   <time name="total">    3.63    3.78</time>
   <energy>
    <i name="e_fr_energy">   -166.07584894 </i>
    <i name="e_wo_entrp">   -166.07354613 </i>
    <i name="e_0_energy">   -166.07469753 </i>
   </energy>
  </scstep>
  <scstep>
   <time name="dav">    3.08    3.20</time>
   <time name="total">    3.33    3.47</time>
   <energy>
    <i name="e_fr_energy">   -166.07586714 </i>
    <i name="e_wo_entrp">   -166.07356433 </i>
    <i name="e_0_energy">   -166.07471573 </i>
   </energy>
  </scstep>
  <scstep>
   <time name="dav">    2.61    2.71</time>
   <time name="total">    2.87    2.98</time>
   <energy>
    <i name="e_fr_energy">   -166.07587026 </i>
    <i name="e_wo_entrp">   -166.07356745 </i>
    <i name="e_0_energy">   -166.07471886 </i>
   </energy>
  </scstep>
  <scstep>
   <time name="dav">    2.62    2.72</time>
   <time name="total">    2.71    2.81</time>
   <energy>
    <i name="alphaZ">     28.04858418 </i>
    <i name="ewald">  11638.79600463 </i>
    <i name="hartreedc"> -13861.45519528 </i>
    <i name="XCdc">    247.81284280 </i>
    <i name="pawpsdc">   7452.52102064 </i>
    <i name="pawaedc">  -7464.78422271 </i>
    <i name="eentropy">     -0.00230281 </i>
    <i name="bandstr">   -855.71778221 </i>
    <i name="atom">   2648.70517965 </i>
    <i name="e_fr_energy">   -166.07587111 </i>
    <i name="e_wo_entrp">   -166.07356831 </i>
    <i name="e_0_energy">   -166.07471971 </i>
   </energy>
  </scstep>
  <structure>
   <crystal>
    <varray name="basis" >
     <v>       7.40170591       0.00000000       0.00000000 </v>
     <v>      -3.70085295       6.41006527       0.00000000 </v>
     <v>       0.00000000       0.00000000      20.00000000 </v>
    </varray>
    <i name="volume">    948.90835877 </i>
    <varray name="rec_basis" >
     <v>       0.13510399       0.07800233       0.00000000 </v>
     <v>       0.00000000       0.15600465       0.00000000 </v>
     <v>       0.00000000       0.00000000       0.05000000 </v>
    </varray>
   </crystal>
   <varray name="positions" >
    <v>       0.00000000       0.00000000       0.49950000 </v>
    <v>       0.33333333       0.00000000       0.50000000 </v>
    <v>       0.66666667       0.00000000       0.50000000 </v>
    <v>       0.00000000       0.33333333       0.50000000 </v>
    <v>       0.33333333       0.33333333       0.50000000 </v>
    <v>       0.66666667       0.33333333       0.50000000 </v>
    <v>       0.00000000       0.66666667       0.50000000 </v>
    <v>       0.33333333       0.66666667       0.50000000 </v>
    <v>       0.66666667       0.66666667       0.50000000 </v>
    <v>       0.22222222       0.11111111       0.50050000 </v>
    <v>       0.55555556       0.11111111       0.50000000 </v>
    <v>       0.88888889       0.11111111       0.50000000 </v>
    <v>       0.22222222       0.44444444       0.50000000 </v>
    <v>       0.55555556       0.44444444       0.50000000 </v>
    <v>       0.88888889       0.44444444       0.50000000 </v>
    <v>       0.22222222       0.77777778       0.50000000 </v>
    <v>       0.55555556       0.77777778       0.50000000 </v>
    <v>       0.88888889       0.77777778       0.50000000 </v>
   </varray>
  </structure>
  <varray name="forces" >
   <v>       0.00174514       0.00100756       0.20431373 </v>
   <v>      -0.00045556       0.00049263       0.06652156 </v>
   <v>      -0.00007569       0.00002344      -0.00426747 </v>
   <v>      -0.00009235       0.00008893       0.00820149 </v>
   <v>       0.00019885      -0.00064085       0.06652156 </v>
   <v>      -0.00010043      -0.00005798       0.00123363 </v>
   <v>       0.00003084      -0.00012444       0.00820149 </v>
   <v>      -0.00009516      -0.00005494      -0.01123634 </v>
   <v>      -0.00001754      -0.00007727      -0.00426747 </v>
   <v>      -0.00174514      -0.00100756      -0.20431373 </v>
   <v>       0.00007569      -0.00002344       0.00426747 </v>
   <v>       0.00045556      -0.00049263      -0.06652156 </v>
   <v>      -0.00003084       0.00012444      -0.00820149 </v>
   <v>       0.00001754       0.00007727       0.00426747 </v>
   <v>       0.00009516       0.00005494       0.01123634 </v>
   <v>       0.00009235      -0.00008893      -0.00820149 </v>
   <v>       0.00010043       0.00005798      -0.00123363 </v>
   <v>      -0.00019885       0.00064085      -0.06652156 </v>
  </varray>
  <varray name="stress" >
   <v>      -0.16781360      -0.00025708      -0.00006019 </v>
   <v>      -0.00025708      -0.16751674      -0.00003475 </v>
   <v>      -0.00006019      -0.00003475      -0.57482545 </v>
  </varray>
  <energy>
   <i name="e_fr_energy">   -166.07587111 </i>
   <i name="e_wo_entrp">   -166.07356831 </i>
   <i name="e_0_energy">   -166.07471971 </i>
  </energy>
  <time name="totalsc">   90.00   89.88</time>
  <eigenvalues>
   <array>
    <dimension dim="1">band</dimension>
    <dimension dim="2">kpoint</dimension>
    <dimension dim="3">spin</dimension>
    <field>eigene</field>
    <field>occ</field>
    <set>
     <set comment="spin 1">
      <set comment="kpoint 1">
       <r>  -22.2558    1.0000 </r>
       <r>  -19.6733    1.0000 </r>
       <r>  -19.6733    1.0000 </r>
       <r>  -19.6733    1.0000 </r>
       <r>  -19.6733    1.0000 </r>
       <r>  -19.6732    1.0000 </r>
       <r>  -19.6730    1.0000 </r>
       <r>  -15.3407    1.0000 </r>
       <r>  -15.3407    1.0000 </r>
       <r>  -15.3406    1.0000 </r>
       <r>  -15.3405    1.0000 </r>
       <r>  -13.2895    1.0000 </r>
       <r>  -13.2894    1.0000 </r>
       <r>  -12.3747    1.0000 </r>
       <r>  -12.3747    1.0000 </r>
       <r>  -12.3747    1.0000 </r>
       <r>  -12.3746    1.0000 </r>
       <r>  -12.3745    1.0000 </r>
       <r>  -12.3743    1.0000 </r>
       <r>  -10.3597    1.0000 </r>
       <r>   -8.5236    1.0000 </r>
       <r>   -8.5236    1.0000 </r>
       <r>   -8.5236    1.0000 </r>
       <r>   -8.5236    1.0000 </r>
       <r>   -8.5234    1.0000 </r>
       <r>   -8.5233    1.0000 </r>
       <r>   -7.3709    1.0000 </r>
       <r>   -7.3709    1.0000 </r>
       <r>   -7.3708    1.0000 </r>
       <r>   -7.3708    1.0000 </r>
       <r>   -7.3706    1.0000 </r>
       <r>   -7.3705    1.0000 </r>
       <r>   -5.7845    1.0000 </r>
       <r>   -5.7843    1.0000 </r>
       <r>   -2.7555    0.5015 </r>
       <r>   -2.7553    0.5002 </r>
       <r>   -2.7553    0.4994 </r>
       <r>   -2.7552    0.4989 </r>
       <r>    0.5193    0.0000 </r>
       <r>    1.3119    0.0000 </r>
       <r>    1.6347    0.0000 </r>
       <r>    2.1419    0.0000 </r>
       <r>    2.1437    0.0000 </r>
       <r>    2.1441    0.0000 </r>
       <r>    2.1442    0.0000 </r>
       <r>    2.1442    0.0000 </r>
      </set>
      <set comment="kpoint 2">
       <r>  -22.2022    1.0000 </r>
       <r>  -20.3488    1.0000 </r>
       <r>  -19.9842    1.0000 </r>
       <r>  -19.9840    1.0000 </r>
       <r>  -19.2624    1.0000 </r>
       <r>  -19.2623    1.0000 </r>
       <r>  -18.9061    1.0000 </r>
       <r>  -15.9952    1.0000 </r>
       <r>  -15.9951    1.0000 </r>
       <r>  -14.9131    1.0000 </r>
       <r>  -14.9131    1.0000 </r>
       <r>  -13.5974    1.0000 </r>
       <r>  -12.9701    1.0000 </r>
       <r>  -12.9701    1.0000 </r>
       <r>  -12.9562    1.0000 </r>
       <r>  -12.9561    1.0000 </r>
       <r>  -11.7351    1.0000 </r>
       <r>  -11.7350    1.0000 </r>
       <r>  -11.1176    1.0000 </r>
       <r>  -10.2958    1.0000 </r>
       <r>   -8.8634    1.0000 </r>
       <r>   -8.8633    1.0000 </r>
       <r>   -8.8291    1.0000 </r>
       <r>   -8.5096    1.0000 </r>
       <r>   -8.5095    1.0000 </r>
       <r>   -8.1320    1.0000 </r>
       <r>   -8.1266    1.0000 </r>
       <r>   -7.7132    1.0000 </r>
       <r>   -7.7132    1.0000 </r>
       <r>   -6.9228    1.0000 </r>
       <r>   -6.9227    1.0000 </r>
       <r>   -6.5571    1.0000 </r>
       <r>   -6.0044    1.0000 </r>
       <r>   -5.9002    1.0000 </r>
       <r>   -3.5267    1.0000 </r>
       <r>   -3.5266    1.0000 </r>
       <r>   -2.0048    0.0000 </r>
       <r>   -2.0046    0.0000 </r>
       <r>    0.5917    0.0000 </r>
       <r>    0.8748    0.0000 </r>
       <r>    1.3855    0.0000 </r>
       <r>    1.4732    0.0000 </r>
       <r>    1.4737    0.0000 </r>
       <r>    1.7093    0.0000 </r>
       <r>    2.6299    0.0000 </r>
       <r>    2.7594    0.0000 </r>
      </set>
      <set comment="kpoint 3">
       <r>  -22.2022    1.0000 </r>
       <r>  -20.3488    1.0000 </r>
       <r>  -19.9841    1.0000 </r>
       <r>  -19.9841    1.0000 </r>
       <r>  -19.2624    1.0000 </r>
       <r>  -19.2623    1.0000 </r>
       <r>  -18.9061    1.0000 </r>
       <r>  -15.9952    1.0000 </r>
       <r>  -15.9951    1.0000 </r>
       <r>  -14.9132    1.0000 </r>
       <r>  -14.9131    1.0000 </r>
       <r>  -13.5974    1.0000 </r>
       <r>  -12.9701    1.0000 </r>
       <r>  -12.9700    1.0000 </r>
       <r>  -12.9562    1.0000 </r>
       <r>  -12.9561    1.0000 </r>
       <r>  -11.7351    1.0000 </r>
       <r>  -11.7349    1.0000 </r>
       <r>  -11.1176    1.0000 </r>
       <r>  -10.2958    1.0000 </r>
       <r>   -8.8634    1.0000 </r>
       <r>   -8.8633    1.0000 </r>
       <r>   -8.8291    1.0000 </r>
       <r>   -8.5097    1.0000 </r>
       <r>   -8.5095    1.0000 </r>
       <r>   -8.1320    1.0000 </r>
       <r>   -8.1267    1.0000 </r>
       <r>   -7.7133    1.0000 </r>
       <r>   -7.7131    1.0000 </r>
       <r>   -6.9227    1.0000 </r>
       <r>   -6.9227    1.0000 </r>
       <r>   -6.5570    1.0000 </r>
       <r>   -6.0046    1.0000 </r>
       <r>   -5.9000    1.0000 </r>
       <r>   -3.5267    1.0000 </r>
       <r>   -3.5266    1.0000 </r>
       <r>   -2.0048    0.0000 </r>
       <r>   -2.0047    0.0000 </r>
       <r>    0.5917    0.0000 </r>
       <r>    0.8749    0.0000 </r>
       <r>    1.3855    0.0000 </r>
       <r>    1.4732    0.0000 </r>
       <r>    1.4736    0.0000 </r>
       <r>    1.7093    0.0000 </r>
       <r>    2.6299    0.0000 </r>
       <r>    2.7599    0.0000 </r>
      </set>
      <set comment="kpoint 4">
       <r>  -22.0417    1.0000 </r>
       <r>  -20.9265    1.0000 </r>
       <r>  -20.1926    1.0000 </r>
       <r>  -20.1925    1.0000 </r>
       <r>  -18.7553    1.0000 </r>
       <r>  -18.7551    1.0000 </r>
       <r>  -18.0628    1.0000 </r>
       <r>  -16.7452    1.0000 </r>
       <r>  -16.7450    1.0000 </r>
       <r>  -14.7529    1.0000 </r>
       <r>  -14.6243    1.0000 </r>
       <r>  -14.6243    1.0000 </r>
       <r>  -13.4993    1.0000 </r>
       <r>  -13.4993    1.0000 </r>
       <r>  -12.1837    1.0000 </r>
       <r>  -12.1836    1.0000 </r>
       <r>  -11.0980    1.0000 </r>
       <r>  -11.0979    1.0000 </r>
       <r>  -10.1047    1.0000 </r>
       <r>   -9.8598    1.0000 </r>
       <r>   -9.4951    1.0000 </r>
       <r>   -9.4950    1.0000 </r>
       <r>   -9.0380    1.0000 </r>
       <r>   -8.7936    1.0000 </r>
       <r>   -8.7612    1.0000 </r>
       <r>   -8.7588    1.0000 </r>
       <r>   -7.9450    1.0000 </r>
       <r>   -7.9445    1.0000 </r>
       <r>   -7.6710    1.0000 </r>
       <r>   -6.6225    1.0000 </r>
       <r>   -6.3780    1.0000 </r>
       <r>   -6.3772    1.0000 </r>
       <r>   -6.2164    1.0000 </r>
       <r>   -5.7648    1.0000 </r>
       <r>   -4.2990    1.0000 </r>
       <r>   -4.2989    1.0000 </r>
       <r>   -1.2831    0.0000 </r>
       <r>   -1.2828    0.0000 </r>
       <r>   -0.2382    0.0000 </r>
       <r>    0.7812    0.0000 </r>
       <r>    0.7877    0.0000 </r>
       <r>    0.8161    0.0000 </r>
       <r>    1.6062    0.0000 </r>
       <r>    1.9326    0.0000 </r>
       <r>    2.3338    0.0000 </r>
       <r>    2.8513    0.0000 </r>
      </set>
      <set comment="kpoint 5">
       <r>  -22.0417    1.0000 </r>
       <r>  -20.9265    1.0000 </r>
       <r>  -20.1926    1.0000 </r>
       <r>  -20.1925    1.0000 </r>
       <r>  -18.7553    1.0000 </r>
       <r>  -18.7552    1.0000 </r>
       <r>  -18.0628    1.0000 </r>
       <r>  -16.7451    1.0000 </r>
       <r>  -16.7450    1.0000 </r>
       <r>  -14.7530    1.0000 </r>
       <r>  -14.6244    1.0000 </r>
       <r>  -14.6243    1.0000 </r>
       <r>  -13.4994    1.0000 </r>
       <r>  -13.4992    1.0000 </r>
       <r>  -12.1837    1.0000 </r>
       <r>  -12.1836    1.0000 </r>
       <r>  -11.0980    1.0000 </r>
       <r>  -11.0978    1.0000 </r>
       <r>  -10.1046    1.0000 </r>
       <r>   -9.8599    1.0000 </r>
       <r>   -9.4951    1.0000 </r>
       <r>   -9.4950    1.0000 </r>
       <r>   -9.0380    1.0000 </r>
       <r>   -8.7939    1.0000 </r>
       <r>   -8.7611    1.0000 </r>
       <r>   -8.7588    1.0000 </r>
       <r>   -7.9450    1.0000 </r>
       <r>   -7.9446    1.0000 </r>
       <r>   -7.6709    1.0000 </r>
       <r>   -6.6226    1.0000 </r>
       <r>   -6.3780    1.0000 </r>
       <r>   -6.3773    1.0000 </r>
       <r>   -6.2162    1.0000 </r>
       <r>   -5.7648    1.0000 </r>
       <r>   -4.2990    1.0000 </r>
       <r>   -4.2989    1.0000 </r>
       <r>   -1.2830    0.0000 </r>
       <r>   -1.2828    0.0000 </r>
       <r>   -0.2383    0.0000 </r>
       <r>    0.7822    0.0000 </r>
       <r>    0.7876    0.0000 </r>
       <r>    0.8152    0.0000 </r>
       <r>    1.6062    0.0000 </r>
       <r>    1.9326    0.0000 </r>
       <r>    2.3339    0.0000 </r>
       <r>    2.8513    0.0000 </r>
      </set>
      <set comment="kpoint 6">
       <r>  -21.7748    1.0000 </r>
       <r>  -21.4026    1.0000 </r>
       <r>  -20.2972    1.0000 </r>
       <r>  -20.2971    1.0000 </r>
       <r>  -18.1581    1.0000 </r>
       <r>  -18.1580    1.0000 </r>
       <r>  -17.4813    1.0000 </r>
       <r>  -17.4812    1.0000 </r>
       <r>  -17.2288    1.0000 </r>
       <r>  -15.7455    1.0000 </r>
       <r>  -14.3221    1.0000 </r>
       <r>  -14.3220    1.0000 </r>
       <r>  -13.9510    1.0000 </r>
       <r>  -13.9509    1.0000 </r>
       <r>  -11.2586    1.0000 </r>
       <r>  -11.2584    1.0000 </r>
       <r>  -10.5973    1.0000 </r>
       <r>  -10.5971    1.0000 </r>
       <r>  -10.3278    1.0000 </r>
       <r>  -10.3276    1.0000 </r>
       <r>   -9.7876    1.0000 </r>
       <r>   -9.3484    1.0000 </r>
       <r>   -9.1438    1.0000 </r>
       <r>   -9.0903    1.0000 </r>
       <r>   -9.0898    1.0000 </r>
       <r>   -8.6461    1.0000 </r>
       <r>   -8.0612    1.0000 </r>
       <r>   -8.0610    1.0000 </r>
       <r>   -7.5383    1.0000 </r>
       <r>   -7.1686    1.0000 </r>
       <r>   -6.6644    1.0000 </r>
       <r>   -5.7469    1.0000 </r>
       <r>   -5.7469    1.0000 </r>
       <r>   -5.1980    1.0000 </r>
       <r>   -5.0472    1.0000 </r>
       <r>   -5.0472    1.0000 </r>
       <r>   -0.9702    0.0000 </r>
       <r>   -0.5852    0.0000 </r>
       <r>   -0.5848    0.0000 </r>
       <r>    0.1012    0.0000 </r>
       <r>    0.1018    0.0000 </r>
       <r>    1.1735    0.0000 </r>
       <r>    1.6816    0.0000 </r>
       <r>    1.9736    0.0000 </r>
       <r>    2.3051    0.0000 </r>
       <r>    2.4866    0.0000 </r>
      </set>
      <set comment="kpoint 7">
       <r>  -21.7748    1.0000 </r>
       <r>  -21.4026    1.0000 </r>
       <r>  -20.2972    1.0000 </r>
       <r>  -20.2971    1.0000 </r>
       <r>  -18.1581    1.0000 </r>
       <r>  -18.1580    1.0000 </r>
       <r>  -17.4813    1.0000 </r>
       <r>  -17.4812    1.0000 </r>
       <r>  -17.2288    1.0000 </r>
       <r>  -15.7456    1.0000 </r>
       <r>  -14.3221    1.0000 </r>
       <r>  -14.3220    1.0000 </r>
       <r>  -13.9510    1.0000 </r>
       <r>  -13.9509    1.0000 </r>
       <r>  -11.2585    1.0000 </r>
       <r>  -11.2584    1.0000 </r>
       <r>  -10.5972    1.0000 </r>
       <r>  -10.5970    1.0000 </r>
       <r>  -10.3277    1.0000 </r>
       <r>  -10.3277    1.0000 </r>
       <r>   -9.7876    1.0000 </r>
       <r>   -9.3484    1.0000 </r>
       <r>   -9.1438    1.0000 </r>
       <r>   -9.0903    1.0000 </r>
       <r>   -9.0900    1.0000 </r>
       <r>   -8.6461    1.0000 </r>
       <r>   -8.0612    1.0000 </r>
       <r>   -8.0610    1.0000 </r>
       <r>   -7.5383    1.0000 </r>
       <r>   -7.1686    1.0000 </r>
       <r>   -6.6644    1.0000 </r>
       <r>   -5.7469    1.0000 </r>
       <r>   -5.7468    1.0000 </r>
       <r>   -5.1980    1.0000 </r>
       <r>   -5.0472    1.0000 </r>
       <r>   -5.0472    1.0000 </r>
       <r>   -0.9703    0.0000 </r>
       <r>   -0.5851    0.0000 </r>
       <r>   -0.5849    0.0000 </r>
       <r>    0.1013    0.0000 </r>
       <r>    0.1017    0.0000 </r>
       <r>    1.1735    0.0000 </r>
       <r>    1.6816    0.0000 </r>
       <r>    1.9736    0.0000 </r>
       <r>    2.3051    0.0000 </r>
       <r>    2.4866    0.0000 </r>
      </set>
      <set comment="kpoint 8">
       <r>  -22.0952    1.0000 </r>
       <r>  -20.6109    1.0000 </r>
       <r>  -20.6108    1.0000 </r>
       <r>  -19.5193    1.0000 </r>
       <r>  -19.5192    1.0000 </r>
       <r>  -18.4549    1.0000 </r>
       <r>  -18.4547    1.0000 </r>
       <r>  -16.7786    1.0000 </r>
       <r>  -16.1616    1.0000 </r>
       <r>  -15.2403    1.0000 </r>
       <r>  -14.2549    1.0000 </r>
       <r>  -14.1585    1.0000 </r>
       <r>  -14.1584    1.0000 </r>
       <r>  -12.6045    1.0000 </r>
       <r>  -12.3071    1.0000 </r>
       <r>  -12.3070    1.0000 </r>
       <r>  -12.2710    1.0000 </r>
       <r>  -10.4864    1.0000 </r>
       <r>  -10.4864    1.0000 </r>
       <r>  -10.1680    1.0000 </r>
       <r>   -9.1765    1.0000 </r>
       <r>   -9.1763    1.0000 </r>
       <r>   -9.1236    1.0000 </r>
       <r>   -9.1235    1.0000 </r>
       <r>   -8.4261    1.0000 </r>
       <r>   -8.4258    1.0000 </r>
       <r>   -8.0745    1.0000 </r>
       <r>   -8.0745    1.0000 </r>
       <r>   -7.1908    1.0000 </r>
       <r>   -7.1906    1.0000 </r>
       <r>   -6.4087    1.0000 </r>
       <r>   -6.1327    1.0000 </r>
       <r>   -6.1040    1.0000 </r>
       <r>   -6.1033    1.0000 </r>
       <r>   -4.2578    1.0000 </r>
       <r>   -3.8994    1.0000 </r>
       <r>   -1.7106    0.0000 </r>
       <r>   -1.2653    0.0000 </r>
       <r>    0.2722    0.0000 </r>
       <r>    0.2730    0.0000 </r>
       <r>    0.7376    0.0000 </r>
       <r>    1.5327    0.0000 </r>
       <r>    1.8580    0.0000 </r>
       <r>    2.0109    0.0000 </r>
       <r>    2.0117    0.0000 </r>
       <r>    2.7775    0.0000 </r>
      </set>
      <set comment="kpoint 9">
       <r>  -22.0952    1.0000 </r>
       <r>  -20.6109    1.0000 </r>
       <r>  -20.6108    1.0000 </r>
       <r>  -19.5193    1.0000 </r>
       <r>  -19.5192    1.0000 </r>
       <r>  -18.4549    1.0000 </r>
       <r>  -18.4547    1.0000 </r>
       <r>  -16.7786    1.0000 </r>
       <r>  -16.1617    1.0000 </r>
       <r>  -15.2402    1.0000 </r>
       <r>  -14.2549    1.0000 </r>
       <r>  -14.1585    1.0000 </r>
       <r>  -14.1585    1.0000 </r>
       <r>  -12.6045    1.0000 </r>
       <r>  -12.3071    1.0000 </r>
       <r>  -12.3069    1.0000 </r>
       <r>  -12.2711    1.0000 </r>
       <r>  -10.4865    1.0000 </r>
       <r>  -10.4863    1.0000 </r>
       <r>  -10.1681    1.0000 </r>
       <r>   -9.1765    1.0000 </r>
       <r>   -9.1764    1.0000 </r>
       <r>   -9.1237    1.0000 </r>
       <r>   -9.1235    1.0000 </r>
       <r>   -8.4260    1.0000 </r>
       <r>   -8.4260    1.0000 </r>
       <r>   -8.0746    1.0000 </r>
       <r>   -8.0745    1.0000 </r>
       <r>   -7.1908    1.0000 </r>
       <r>   -7.1906    1.0000 </r>
       <r>   -6.4087    1.0000 </r>
       <r>   -6.1323    1.0000 </r>
       <r>   -6.1040    1.0000 </r>
       <r>   -6.1036    1.0000 </r>
       <r>   -4.2578    1.0000 </r>
       <r>   -3.8994    1.0000 </r>
       <r>   -1.7105    0.0000 </r>
       <r>   -1.2654    0.0000 </r>
       <r>    0.2721    0.0000 </r>
       <r>    0.2730    0.0000 </r>
       <r>    0.7378    0.0000 </r>
       <r>    1.5327    0.0000 </r>
       <r>    1.8581    0.0000 </r>
       <r>    2.0112    0.0000 </r>
       <r>    2.0113    0.0000 </r>
       <r>    2.7775    0.0000 </r>
      </set>
      <set comment="kpoint 10">
       <r>  -21.8815    1.0000 </r>
       <r>  -21.1377    1.0000 </r>
       <r>  -20.7686    1.0000 </r>
       <r>  -19.6743    1.0000 </r>
       <r>  -18.9579    1.0000 </r>
       <r>  -17.9165    1.0000 </r>
       <r>  -17.5934    1.0000 </r>
       <r>  -17.5729    1.0000 </r>
       <r>  -16.6711    1.0000 </r>
       <r>  -15.2536    1.0000 </r>
       <r>  -15.2500    1.0000 </r>
       <r>  -14.6348    1.0000 </r>
       <r>  -13.7272    1.0000 </r>
       <r>  -12.8210    1.0000 </r>
       <r>  -11.8985    1.0000 </r>
       <r>  -11.6826    1.0000 </r>
       <r>  -11.3887    1.0000 </r>
       <r>  -10.0394    1.0000 </r>
       <r>   -9.9202    1.0000 </r>
       <r>   -9.9104    1.0000 </r>
       <r>   -9.7107    1.0000 </r>
       <r>   -9.6301    1.0000 </r>
       <r>   -9.2824    1.0000 </r>
       <r>   -9.2644    1.0000 </r>
       <r>   -9.0373    1.0000 </r>
       <r>   -8.6067    1.0000 </r>
       <r>   -8.2587    1.0000 </r>
       <r>   -7.5790    1.0000 </r>
       <r>   -7.3539    1.0000 </r>
       <r>   -7.1427    1.0000 </r>
       <r>   -6.5696    1.0000 </r>
       <r>   -6.5446    1.0000 </r>
       <r>   -5.5814    1.0000 </r>
       <r>   -5.3854    1.0000 </r>
       <r>   -5.0742    1.0000 </r>
       <r>   -4.4328    1.0000 </r>
       <r>   -1.2967    0.0000 </r>
       <r>   -0.6854    0.0000 </r>
       <r>   -0.4251    0.0000 </r>
       <r>   -0.2986    0.0000 </r>
       <r>    1.0277    0.0000 </r>
       <r>    1.2243    0.0000 </r>
       <r>    1.8268    0.0000 </r>
       <r>    2.0443    0.0000 </r>
       <r>    2.1561    0.0000 </r>
       <r>    2.4020    0.0000 </r>
      </set>
      <set comment="kpoint 11">
       <r>  -21.8815    1.0000 </r>
       <r>  -21.1377    1.0000 </r>
       <r>  -20.7686    1.0000 </r>
       <r>  -19.6743    1.0000 </r>
       <r>  -18.9579    1.0000 </r>
       <r>  -17.9165    1.0000 </r>
       <r>  -17.5934    1.0000 </r>
       <r>  -17.5729    1.0000 </r>
       <r>  -16.6711    1.0000 </r>
       <r>  -15.2537    1.0000 </r>
       <r>  -15.2499    1.0000 </r>
       <r>  -14.6348    1.0000 </r>
       <r>  -13.7272    1.0000 </r>
       <r>  -12.8210    1.0000 </r>
       <r>  -11.8985    1.0000 </r>
       <r>  -11.6825    1.0000 </r>
       <r>  -11.3887    1.0000 </r>
       <r>  -10.0394    1.0000 </r>
       <r>   -9.9202    1.0000 </r>
       <r>   -9.9103    1.0000 </r>
       <r>   -9.7107    1.0000 </r>
       <r>   -9.6302    1.0000 </r>
       <r>   -9.2824    1.0000 </r>
       <r>   -9.2644    1.0000 </r>
       <r>   -9.0373    1.0000 </r>
       <r>   -8.6067    1.0000 </r>
       <r>   -8.2587    1.0000 </r>
       <r>   -7.5790    1.0000 </r>
       <r>   -7.3539    1.0000 </r>
       <r>   -7.1428    1.0000 </r>
       <r>   -6.5703    1.0000 </r>
       <r>   -6.5438    1.0000 </r>
       <r>   -5.5814    1.0000 </r>
       <r>   -5.3854    1.0000 </r>
       <r>   -5.0741    1.0000 </r>
       <r>   -4.4329    1.0000 </r>
       <r>   -1.2967    0.0000 </r>
       <r>   -0.6854    0.0000 </r>
       <r>   -0.4252    0.0000 </r>
       <r>   -0.2986    0.0000 </r>
       <r>    1.0280    0.0000 </r>
       <r>    1.2242    0.0000 </r>
       <r>    1.8268    0.0000 </r>
       <r>    2.0444    0.0000 </r>
       <r>    2.1561    0.0000 </r>
       <r>    2.4025    0.0000 </r>
      </set>
      <set comment="kpoint 12">
       <r>  -21.8815    1.0000 </r>
       <r>  -21.1377    1.0000 </r>
       <r>  -20.7686    1.0000 </r>
       <r>  -19.6743    1.0000 </r>
       <r>  -18.9579    1.0000 </r>
       <r>  -17.9165    1.0000 </r>
       <r>  -17.5934    1.0000 </r>
       <r>  -17.5729    1.0000 </r>
       <r>  -16.6711    1.0000 </r>
       <r>  -15.2537    1.0000 </r>
       <r>  -15.2500    1.0000 </r>
       <r>  -14.6348    1.0000 </r>
       <r>  -13.7272    1.0000 </r>
       <r>  -12.8210    1.0000 </r>
       <r>  -11.8986    1.0000 </r>
       <r>  -11.6825    1.0000 </r>
       <r>  -11.3887    1.0000 </r>
       <r>  -10.0393    1.0000 </r>
       <r>   -9.9213    1.0000 </r>
       <r>   -9.9092    1.0000 </r>
       <r>   -9.7107    1.0000 </r>
       <r>   -9.6302    1.0000 </r>
       <r>   -9.2824    1.0000 </r>
       <r>   -9.2645    1.0000 </r>
       <r>   -9.0374    1.0000 </r>
       <r>   -8.6066    1.0000 </r>
       <r>   -8.2587    1.0000 </r>
       <r>   -7.5790    1.0000 </r>
       <r>   -7.3539    1.0000 </r>
       <r>   -7.1428    1.0000 </r>
       <r>   -6.5696    1.0000 </r>
       <r>   -6.5446    1.0000 </r>
       <r>   -5.5814    1.0000 </r>
       <r>   -5.3854    1.0000 </r>
       <r>   -5.0741    1.0000 </r>
       <r>   -4.4328    1.0000 </r>
       <r>   -1.2968    0.0000 </r>
       <r>   -0.6854    0.0000 </r>
       <r>   -0.4251    0.0000 </r>
       <r>   -0.2986    0.0000 </r>
       <r>    1.0277    0.0000 </r>
       <r>    1.2242    0.0000 </r>
       <r>    1.8268    0.0000 </r>
       <r>    2.0445    0.0000 </r>
       <r>    2.1560    0.0000 </r>
       <r>    2.4025    0.0000 </r>
      </set>
      <set comment="kpoint 13">
       <r>  -21.5620    1.0000 </r>
       <r>  -21.5618    1.0000 </r>
       <r>  -20.8213    1.0000 </r>
       <r>  -19.7261    1.0000 </r>
       <r>  -18.3060    1.0000 </r>
       <r>  -18.3059    1.0000 </r>
       <r>  -17.3075    1.0000 </r>
       <r>  -17.3074    1.0000 </r>
       <r>  -16.9870    1.0000 </r>
       <r>  -15.9389    1.0000 </r>
       <r>  -15.0097    1.0000 </r>
       <r>  -15.0095    1.0000 </r>
       <r>  -13.2820    1.0000 </r>
       <r>  -13.2818    1.0000 </r>
       <r>  -11.3580    1.0000 </r>
       <r>  -10.9878    1.0000 </r>
       <r>  -10.9876    1.0000 </r>
       <r>  -10.5000    1.0000 </r>
       <r>  -10.4997    1.0000 </r>
       <r>   -9.9052    1.0000 </r>
       <r>   -9.6353    1.0000 </r>
       <r>   -9.5358    1.0000 </r>
       <r>   -9.5354    1.0000 </r>
       <r>   -9.3358    1.0000 </r>
       <r>   -8.6672    1.0000 </r>
       <r>   -8.4184    1.0000 </r>
       <r>   -8.1249    1.0000 </r>
       <r>   -8.1246    1.0000 </r>
       <r>   -7.4093    1.0000 </r>
       <r>   -7.0535    1.0000 </r>
       <r>   -7.0530    1.0000 </r>
       <r>   -5.8557    1.0000 </r>
       <r>   -5.8555    1.0000 </r>
       <r>   -5.0628    1.0000 </r>
       <r>   -5.0124    1.0000 </r>
       <r>   -5.0124    1.0000 </r>
       <r>   -1.0894    0.0000 </r>
       <r>   -0.8236    0.0000 </r>
       <r>   -0.8232    0.0000 </r>
       <r>    0.4100    0.0000 </r>
       <r>    0.4104    0.0000 </r>
       <r>    1.4640    0.0000 </r>
       <r>    1.4641    0.0000 </r>
       <r>    2.2671    0.0000 </r>
       <r>    2.2672    0.0000 </r>
       <r>    2.6029    0.0000 </r>
      </set>
      <set comment="kpoint 14">
       <r>  -21.5620    1.0000 </r>
       <r>  -21.5618    1.0000 </r>
       <r>  -20.8213    1.0000 </r>
       <r>  -19.7261    1.0000 </r>
       <r>  -18.3060    1.0000 </r>
       <r>  -18.3059    1.0000 </r>
       <r>  -17.3075    1.0000 </r>
       <r>  -17.3074    1.0000 </r>
       <r>  -16.9869    1.0000 </r>
       <r>  -15.9390    1.0000 </r>
       <r>  -15.0097    1.0000 </r>
       <r>  -15.0095    1.0000 </r>
       <r>  -13.2819    1.0000 </r>
       <r>  -13.2818    1.0000 </r>
       <r>  -11.3579    1.0000 </r>
       <r>  -10.9878    1.0000 </r>
       <r>  -10.9876    1.0000 </r>
       <r>  -10.4999    1.0000 </r>
       <r>  -10.4998    1.0000 </r>
       <r>   -9.9053    1.0000 </r>
       <r>   -9.6353    1.0000 </r>
       <r>   -9.5358    1.0000 </r>
       <r>   -9.5353    1.0000 </r>
       <r>   -9.3359    1.0000 </r>
       <r>   -8.6671    1.0000 </r>
       <r>   -8.4185    1.0000 </r>
       <r>   -8.1249    1.0000 </r>
       <r>   -8.1248    1.0000 </r>
       <r>   -7.4093    1.0000 </r>
       <r>   -7.0535    1.0000 </r>
       <r>   -7.0528    1.0000 </r>
       <r>   -5.8556    1.0000 </r>
       <r>   -5.8555    1.0000 </r>
       <r>   -5.0628    1.0000 </r>
       <r>   -5.0124    1.0000 </r>
       <r>   -5.0124    1.0000 </r>
       <r>   -1.0894    0.0000 </r>
       <r>   -0.8235    0.0000 </r>
       <r>   -0.8233    0.0000 </r>
       <r>    0.4099    0.0000 </r>
       <r>    0.4105    0.0000 </r>
       <r>    1.4641    0.0000 </r>
       <r>    1.4641    0.0000 </r>
       <r>    2.2671    0.0000 </r>
       <r>    2.2672    0.0000 </r>
       <r>    2.4815    0.0000 </r>
      </set>
      <set comment="kpoint 15">
       <r>  -21.6151    1.0000 </r>
       <r>  -21.2437    1.0000 </r>
       <r>  -21.2435    1.0000 </r>
       <r>  -19.0600    1.0000 </r>
       <r>  -19.0599    1.0000 </r>
       <r>  -18.3556    1.0000 </r>
       <r>  -17.0888    1.0000 </r>
       <r>  -17.0887    1.0000 </r>
       <r>  -16.7114    1.0000 </r>
       <r>  -15.6765    1.0000 </r>
       <r>  -15.6142    1.0000 </r>
       <r>  -15.6141    1.0000 </r>
       <r>  -12.9179    1.0000 </r>
       <r>  -12.2633    1.0000 </r>
       <r>  -12.2632    1.0000 </r>
       <r>  -11.3539    1.0000 </r>
       <r>  -10.5571    1.0000 </r>
       <r>  -10.5494    1.0000 </r>
       <r>  -10.5490    1.0000 </r>
       <r>   -9.8195    1.0000 </r>
       <r>   -9.8194    1.0000 </r>
       <r>   -9.5986    1.0000 </r>
       <r>   -9.1611    1.0000 </r>
       <r>   -9.1608    1.0000 </r>
       <r>   -8.8219    1.0000 </r>
       <r>   -8.8218    1.0000 </r>
       <r>   -7.8827    1.0000 </r>
       <r>   -7.6861    1.0000 </r>
       <r>   -7.6859    1.0000 </r>
       <r>   -7.0826    1.0000 </r>
       <r>   -6.6645    1.0000 </r>
       <r>   -6.6644    1.0000 </r>
       <r>   -5.8934    1.0000 </r>
       <r>   -5.0051    1.0000 </r>
       <r>   -5.0051    1.0000 </r>
       <r>   -4.6730    1.0000 </r>
       <r>   -1.2279    0.0000 </r>
       <r>   -1.0249    0.0000 </r>
       <r>   -1.0247    0.0000 </r>
       <r>    0.5279    0.0000 </r>
       <r>    1.3896    0.0000 </r>
       <r>    1.4822    0.0000 </r>
       <r>    1.4831    0.0000 </r>
       <r>    1.9001    0.0000 </r>
       <r>    1.9007    0.0000 </r>
       <r>    2.1939    0.0000 </r>
      </set>
      <set comment="kpoint 16">
       <r>  -21.6151    1.0000 </r>
       <r>  -21.2437    1.0000 </r>
       <r>  -21.2435    1.0000 </r>
       <r>  -19.0600    1.0000 </r>
       <r>  -19.0599    1.0000 </r>
       <r>  -18.3556    1.0000 </r>
       <r>  -17.0888    1.0000 </r>
       <r>  -17.0886    1.0000 </r>
       <r>  -16.7115    1.0000 </r>
       <r>  -15.6764    1.0000 </r>
       <r>  -15.6142    1.0000 </r>
       <r>  -15.6142    1.0000 </r>
       <r>  -12.9180    1.0000 </r>
       <r>  -12.2633    1.0000 </r>
       <r>  -12.2630    1.0000 </r>
       <r>  -11.3539    1.0000 </r>
       <r>  -10.5571    1.0000 </r>
       <r>  -10.5493    1.0000 </r>
       <r>  -10.5492    1.0000 </r>
       <r>   -9.8196    1.0000 </r>
       <r>   -9.8193    1.0000 </r>
       <r>   -9.5986    1.0000 </r>
       <r>   -9.1611    1.0000 </r>
       <r>   -9.1609    1.0000 </r>
       <r>   -8.8219    1.0000 </r>
       <r>   -8.8216    1.0000 </r>
       <r>   -7.8828    1.0000 </r>
       <r>   -7.6860    1.0000 </r>
       <r>   -7.6860    1.0000 </r>
       <r>   -7.0826    1.0000 </r>
       <r>   -6.6647    1.0000 </r>
       <r>   -6.6642    1.0000 </r>
       <r>   -5.8933    1.0000 </r>
       <r>   -5.0051    1.0000 </r>
       <r>   -5.0051    1.0000 </r>
       <r>   -4.6730    1.0000 </r>
       <r>   -1.2278    0.0000 </r>
       <r>   -1.0251    0.0000 </r>
       <r>   -1.0246    0.0000 </r>
       <r>    0.5277    0.0000 </r>
       <r>    1.3904    0.0000 </r>
       <r>    1.4820    0.0000 </r>
       <r>    1.4828    0.0000 </r>
       <r>    1.9002    0.0000 </r>
       <r>    1.9006    0.0000 </r>
       <r>    2.1939    0.0000 </r>
      </set>
     </set>
    </set>
   </array>
  </eigenvalues>
  <separator name="orbital magnetization" >
   <v name="MAGDIPOLOUT">      0.00000000      0.00000000      0.00000000</v>
  </separator>
  <dos>
   <i name="efermi">     -2.75532962 </i>
   <total>
    <array>
     <dimension dim="1">gridpoints</dimension>
     <dimension dim="2">spin</dimension>
     <field>energy</field>
     <field>total</field>
     <field>integrated</field>
     <set>
      <set comment="spin 1">
       <r>   -23.5111     0.0000     0.0000 </r>
       <r>   -23.4191     0.0000     0.0000 </r>
       <r>   -23.3270     0.0000     0.0000 </r>
       <r>   -23.2350     0.0000     0.0000 </r>
       <r>   -23.1429     0.0000     0.0000 </r>
       <r>   -23.0508     0.0000     0.0000 </r>
       <r>   -22.9588     0.0000     0.0000 </r>
       <r>   -22.8667     0.0000     0.0000 </r>
       <r>   -22.7747     0.0000     0.0000 </r>
       <r>   -22.6826     0.0000     0.0000 </r>
       <r>   -22.5905     0.0000     0.0000 </r>
       <r>   -22.4985     0.0000     0.0000 </r>
       <r>   -22.4064     0.0000     0.0000 </r>
       <r>   -22.3144     0.0236     0.0022 </r>
       <r>   -22.2223     1.1016     0.1036 </r>
       <r>   -22.1303     2.3657     0.3214 </r>
       <r>   -22.0382     3.5650     0.6496 </r>
       <r>   -21.9461     1.5381     0.7912 </r>
       <r>   -21.8541     4.0171     1.1610 </r>
       <r>   -21.7620     2.8374     1.4222 </r>
       <r>   -21.6700     1.1186     1.5252 </r>
       <r>   -21.5779     3.8399     1.8787 </r>
       <r>   -21.4858     3.9189     2.2394 </r>
       <r>   -21.3938     1.6510     2.3914 </r>
       <r>   -21.3017     1.3295     2.5138 </r>
       <r>   -21.2097     4.2745     2.9073 </r>
       <r>   -21.1176     4.5905     3.3299 </r>
       <r>   -21.0255     1.5177     3.4696 </r>
       <r>   -20.9335     1.1199     3.5727 </r>
       <r>   -20.8414     2.3790     3.7917 </r>
       <r>   -20.7494     5.5262     4.3005 </r>
       <r>   -20.6573     2.1108     4.4948 </r>
       <r>   -20.5652     4.2981     4.8905 </r>
       <r>   -20.4732     0.5250     4.9388 </r>
       <r>   -20.3811     0.5259     4.9872 </r>
       <r>   -20.2891     5.1711     5.4633 </r>
       <r>   -20.1970     4.6655     5.8928 </r>
       <r>   -20.1049     2.9048     6.1602 </r>
       <r>   -20.0129     1.1384     6.2650 </r>
       <r>   -19.9208     4.0198     6.6350 </r>
       <r>   -19.8288     0.2006     6.6535 </r>
       <r>   -19.7367     1.3138     6.7745 </r>
       <r>   -19.6447     7.6689     7.4805 </r>
       <r>   -19.5526     2.5706     7.7171 </r>
       <r>   -19.4605     4.1458     8.0988 </r>
       <r>   -19.3685     0.2644     8.1231 </r>
       <r>   -19.2764     1.8308     8.2916 </r>
       <r>   -19.1844     3.4109     8.6056 </r>
       <r>   -19.0923     1.0298     8.7005 </r>
       <r>   -19.0002     4.7455     9.1373 </r>
       <r>   -18.9082     5.7804     9.6695 </r>
       <r>   -18.8161     2.0282     9.8562 </r>
       <r>   -18.7241     4.1028    10.2339 </r>
       <r>   -18.6320     1.0052    10.3264 </r>
       <r>   -18.5399     0.0440    10.3305 </r>
       <r>   -18.4479     3.0433    10.6106 </r>
       <r>   -18.3558     3.9637    10.9755 </r>
       <r>   -18.2638     5.6260    11.4935 </r>
       <r>   -18.1717     2.4877    11.7225 </r>
       <r>   -18.0796     4.2315    12.1120 </r>
       <r>   -17.9876     1.9606    12.2925 </r>
       <r>   -17.8955     3.7756    12.6401 </r>
       <r>   -17.8035     1.4674    12.7752 </r>
       <r>   -17.7114     0.0062    12.7757 </r>
       <r>   -17.6194     1.7326    12.9352 </r>
       <r>   -17.5273     8.7308    13.7390 </r>
       <r>   -17.4352     4.9826    14.1977 </r>
       <r>   -17.3432     1.3441    14.3214 </r>
       <r>   -17.2511     4.8955    14.7721 </r>
       <r>   -17.1591     2.3136    14.9851 </r>
       <r>   -17.0670     3.8593    15.3404 </r>
       <r>   -16.9749     3.0816    15.6241 </r>
       <r>   -16.8829     0.9803    15.7143 </r>
       <r>   -16.7908     1.5253    15.8547 </r>
       <r>   -16.6988     8.7730    16.6624 </r>
       <r>   -16.6067     5.4759    17.1665 </r>
       <r>   -16.5146     0.1869    17.1837 </r>
       <r>   -16.4226     0.0000    17.1837 </r>
       <r>   -16.3305     0.0000    17.1837 </r>
       <r>   -16.2385     0.0396    17.1873 </r>
       <r>   -16.1464     1.7343    17.3470 </r>
       <r>   -16.0543     1.1351    17.4515 </r>
       <r>   -15.9623     4.8124    17.8945 </r>
       <r>   -15.8702     2.8500    18.1569 </r>
       <r>   -15.7782     0.5490    18.2074 </r>
       <r>   -15.6861     3.2129    18.5032 </r>
       <r>   -15.5940     5.4090    19.0011 </r>
       <r>   -15.5020     1.5354    19.1425 </r>
       <r>   -15.4099     0.0484    19.1469 </r>
       <r>   -15.3179     1.6356    19.2975 </r>
       <r>   -15.2258    10.0228    20.2202 </r>
       <r>   -15.1338     3.3651    20.5300 </r>
       <r>   -15.0417     0.9747    20.6197 </r>
       <r>   -14.9496     4.9159    21.0723 </r>
       <r>   -14.8576     4.4523    21.4821 </r>
       <r>   -14.7655     1.2666    21.5987 </r>
       <r>   -14.6735     2.8334    21.8596 </r>
       <r>   -14.5814     8.5599    22.6476 </r>
       <r>   -14.4893     0.9457    22.7347 </r>
       <r>   -14.3973     0.0892    22.7429 </r>
       <r>   -14.3052     3.7505    23.0881 </r>
       <r>   -14.2132     4.1440    23.4696 </r>
       <r>   -14.1211     4.5451    23.8880 </r>
       <r>   -14.0290     0.8443    23.9658 </r>
       <r>   -13.9370     3.4047    24.2792 </r>
       <r>   -13.8449     1.8392    24.4485 </r>
       <r>   -13.7529     1.2492    24.5635 </r>
       <r>   -13.6608     4.0126    24.9329 </r>
       <r>   -13.5687     2.3006    25.1447 </r>
       <r>   -13.4767     4.3528    25.5454 </r>
       <r>   -13.3846     1.4006    25.6744 </r>
       <r>   -13.2926     2.4293    25.8980 </r>
       <r>   -13.2005     3.7060    26.2392 </r>
       <r>   -13.1085     0.0625    26.2449 </r>
       <r>   -13.0164     0.7482    26.3138 </r>
       <r>   -12.9243     9.5410    27.1921 </r>
       <r>   -12.8323     4.9836    27.6509 </r>
       <r>   -12.7402     3.2892    27.9537 </r>
       <r>   -12.6482     0.3479    27.9858 </r>
       <r>   -12.5561     2.1443    28.1832 </r>
       <r>   -12.4640     0.2424    28.2055 </r>
       <r>   -12.3720     1.5801    28.3509 </r>
       <r>   -12.2799     7.9734    29.0850 </r>
       <r>   -12.1879     8.6876    29.8847 </r>
       <r>   -12.0958     2.9912    30.1601 </r>
       <r>   -12.0037     0.0422    30.1640 </r>
       <r>   -11.9117     1.8811    30.3372 </r>
       <r>   -11.8196     3.4082    30.6509 </r>
       <r>   -11.7276     3.6679    30.9886 </r>
       <r>   -11.6355     6.4952    31.5865 </r>
       <r>   -11.5434     0.5009    31.6326 </r>
       <r>   -11.4514     0.2220    31.6531 </r>
       <r>   -11.3593     6.4870    32.2503 </r>
       <r>   -11.2673     6.0354    32.8059 </r>
       <r>   -11.1752     3.3818    33.1172 </r>
       <r>   -11.0831     5.5971    33.6325 </r>
       <r>   -10.9911     4.6684    34.0622 </r>
       <r>   -10.8990     2.8386    34.3236 </r>
       <r>   -10.8070     0.0323    34.3265 </r>
       <r>   -10.7149     0.0023    34.3267 </r>
       <r>   -10.6229     1.4254    34.4580 </r>
       <r>   -10.5308    11.0733    35.4774 </r>
       <r>   -10.4387    10.7491    36.4669 </r>
       <r>   -10.3467     2.7503    36.7201 </r>
       <r>   -10.2546     5.9558    37.2684 </r>
       <r>   -10.1626     2.0396    37.4562 </r>
       <r>   -10.0705     4.2450    37.8469 </r>
       <r>    -9.9784     5.0037    38.3076 </r>
       <r>    -9.8864    10.8107    39.3028 </r>
       <r>    -9.7943    10.0499    40.2280 </r>
       <r>    -9.7023     6.1729    40.7963 </r>
       <r>    -9.6102     8.8844    41.6141 </r>
       <r>    -9.5181     8.7430    42.4190 </r>
       <r>    -9.4261     5.5562    42.9305 </r>
       <r>    -9.3340     3.7390    43.2747 </r>
       <r>    -9.2420    10.4667    44.2383 </r>
       <r>    -9.1499    11.8818    45.3321 </r>
       <r>    -9.0578    15.0045    46.7134 </r>
       <r>    -8.9658     6.7218    47.3322 </r>
       <r>    -8.8737     2.8937    47.5986 </r>
       <r>    -8.7817    12.7150    48.7691 </r>
       <r>    -8.6896     6.7434    49.3899 </r>
       <r>    -8.5976     7.4024    50.0714 </r>
       <r>    -8.5055     7.1542    50.7300 </r>
       <r>    -8.4134     8.0106    51.4675 </r>
       <r>    -8.3214     3.3113    51.7723 </r>
       <r>    -8.2293     4.0751    52.1474 </r>
       <r>    -8.1373     5.4595    52.6500 </r>
       <r>    -8.0452    13.9620    53.9354 </r>
       <r>    -7.9531     5.1352    54.4081 </r>
       <r>    -7.8611     4.9979    54.8682 </r>
       <r>    -7.7690     1.1267    54.9719 </r>
       <r>    -7.6770     8.5107    55.7554 </r>
       <r>    -7.5849     6.9549    56.3957 </r>
       <r>    -7.4928     5.1778    56.8723 </r>
       <r>    -7.4008     2.8786    57.1373 </r>
       <r>    -7.3087     7.3958    57.8182 </r>
       <r>    -7.2167     2.2054    58.0212 </r>
       <r>    -7.1246    10.1056    58.9515 </r>
       <r>    -7.0325     7.9184    59.6805 </r>
       <r>    -6.9405     3.3305    59.9871 </r>
       <r>    -6.8484     3.5924    60.3178 </r>
       <r>    -6.7564     0.1321    60.3300 </r>
       <r>    -6.6643     4.3066    60.7264 </r>
       <r>    -6.5722    10.6019    61.7024 </r>
       <r>    -6.4802     8.8084    62.5133 </r>
       <r>    -6.3881     4.1400    62.8945 </r>
       <r>    -6.2961     4.0023    63.2629 </r>
       <r>    -6.2040     1.7862    63.4273 </r>
       <r>    -6.1120     4.9836    63.8861 </r>
       <r>    -6.0199     4.7317    64.3217 </r>
       <r>    -5.9278     2.9076    64.5894 </r>
       <r>    -5.8358     7.9557    65.3218 </r>
       <r>    -5.7437     7.1521    65.9802 </r>
       <r>    -5.6517     3.4227    66.2953 </r>
       <r>    -5.5596     3.7866    66.6439 </r>
       <r>    -5.4675     1.4802    66.7802 </r>
       <r>    -5.3755     3.1999    67.0747 </r>
       <r>    -5.2834     2.0806    67.2663 </r>
       <r>    -5.1914     1.5203    67.4062 </r>
       <r>    -5.0993     3.2237    67.7030 </r>
       <r>    -5.0072    15.7098    69.1492 </r>
       <r>    -4.9152     6.0923    69.7101 </r>
       <r>    -4.8231     0.0457    69.7143 </r>
       <r>    -4.7311     0.1338    69.7266 </r>
       <r>    -4.6390     2.0794    69.9180 </r>
       <r>    -4.5469     0.4498    69.9594 </r>
       <r>    -4.4549     1.4148    70.0897 </r>
       <r>    -4.3628     3.9683    70.4550 </r>
       <r>    -4.2708     5.0731    70.9220 </r>
       <r>    -4.1787     2.8067    71.1804 </r>
       <r>    -4.0867     0.0354    71.1837 </r>
       <r>    -3.9946     0.0094    71.1845 </r>
       <r>    -3.9025     1.2263    71.2974 </r>
       <r>    -3.8105     1.4086    71.4271 </r>
       <r>    -3.7184     0.0158    71.4286 </r>
       <r>    -3.6264     0.0128    71.4297 </r>
       <r>    -3.5343     2.1921    71.6316 </r>
       <r>    -3.4422     3.0704    71.9142 </r>
       <r>    -3.3502     0.0451    71.9184 </r>
       <r>    -3.2581     0.0000    71.9184 </r>
       <r>    -3.1661     0.0000    71.9184 </r>
       <r>    -3.0740     0.0000    71.9184 </r>
       <r>    -2.9819     0.0000    71.9184 </r>
       <r>    -2.8899     0.0001    71.9184 </r>
       <r>    -2.7978     0.2033    71.9371 </r>
       <r>    -2.7058     1.4273    72.0685 </r>
       <r>    -2.6137     0.1426    72.0816 </r>
       <r>    -2.5216     0.0001    72.0816 </r>
       <r>    -2.4296     0.0000    72.0816 </r>
       <r>    -2.3375     0.0000    72.0816 </r>
       <r>    -2.2455     0.0000    72.0816 </r>
       <r>    -2.1534     0.0001    72.0816 </r>
       <r>    -2.0613     0.2907    72.1084 </r>
       <r>    -1.9693     4.1887    72.4940 </r>
       <r>    -1.8772     0.8401    72.5714 </r>
       <r>    -1.7852     0.0472    72.5757 </r>
       <r>    -1.6931     1.7877    72.7403 </r>
       <r>    -1.6011     0.8235    72.8161 </r>
       <r>    -1.5090     0.0026    72.8163 </r>
       <r>    -1.4169     0.0022    72.8165 </r>
       <r>    -1.3249     1.8876    72.9903 </r>
       <r>    -1.2328    11.5132    74.0502 </r>
       <r>    -1.1408     2.7367    74.3021 </r>
       <r>    -1.0487     3.5136    74.6256 </r>
       <r>    -0.9566     5.8744    75.1664 </r>
       <r>    -0.8646     1.7203    75.3248 </r>
       <r>    -0.7725     4.3120    75.7217 </r>
       <r>    -0.6805     3.3384    76.0290 </r>
       <r>    -0.5884     4.7844    76.4695 </r>
       <r>    -0.4963     2.9653    76.7425 </r>
       <r>    -0.4043     3.7650    77.0891 </r>
       <r>    -0.3122     3.3787    77.4001 </r>
       <r>    -0.2202     5.1921    77.8781 </r>
       <r>    -0.1281     0.8783    77.9590 </r>
       <r>    -0.0360     0.0027    77.9592 </r>
       <r>     0.0560     0.5270    78.0077 </r>
       <r>     0.1481     4.2947    78.4031 </r>
       <r>     0.2401     1.4525    78.5368 </r>
       <r>     0.3322     4.1949    78.9230 </r>
       <r>     0.4242     3.6596    79.2599 </r>
       <r>     0.5163     3.0662    79.5422 </r>
       <r>     0.6084     3.6503    79.8782 </r>
       <r>     0.7004     1.3133    79.9991 </r>
       <r>     0.7925     5.8954    80.5418 </r>
       <r>     0.8845     5.8487    81.0803 </r>
       <r>     0.9766     1.5108    81.2193 </r>
       <r>     1.0687     4.2781    81.6132 </r>
       <r>     1.1607     1.8015    81.7790 </r>
       <r>     1.2528     5.7061    82.3043 </r>
       <r>     1.3448     2.0969    82.4974 </r>
       <r>     1.4369     6.8654    83.1294 </r>
       <r>     1.5290    14.1572    84.4327 </r>
       <r>     1.6210     4.4251    84.8400 </r>
       <r>     1.7131     4.6746    85.2704 </r>
       <r>     1.8051     3.3446    85.5783 </r>
       <r>     1.8972     8.8075    86.3891 </r>
       <r>     1.9893     8.8698    87.2056 </r>
       <r>     2.0813     9.2206    88.0545 </r>
       <r>     2.1734     6.9381    88.6932 </r>
       <r>     2.2654     6.9115    89.3295 </r>
       <r>     2.3575     7.3895    90.0097 </r>
       <r>     2.4496     5.8888    90.5519 </r>
       <r>     2.5416     4.0174    90.9217 </r>
       <r>     2.6337     2.3442    91.1375 </r>
       <r>     2.7257     2.0173    91.3232 </r>
       <r>     2.8178     4.6765    91.7537 </r>
       <r>     2.9098     2.5452    91.9880 </r>
       <r>     3.0019     0.1299    92.0000 </r>
       <r>     3.0940     0.0000    92.0000 </r>
       <r>     3.1860     0.0000    92.0000 </r>
       <r>     3.2781     0.0000    92.0000 </r>
       <r>     3.3701     0.0000    92.0000 </r>
       <r>     3.4622     0.0000    92.0000 </r>
       <r>     3.5543     0.0000    92.0000 </r>
       <r>     3.6463     0.0000    92.0000 </r>
       <r>     3.7384     0.0000    92.0000 </r>
       <r>     3.8304     0.0000    92.0000 </r>
       <r>     3.9225     0.0000    92.0000 </r>
       <r>     4.0146     0.0000    92.0000 </r>
       <r>     4.1066     0.0000    92.0000 </r>
      </set>
     </set>
    </array>
   </total>
  </dos>
 </calculation>
 <structure name="finalpos" >
  <crystal>
   <varray name="basis" >
    <v>       7.40170591       0.00000000       0.00000000 </v>
    <v>      -3.70085295       6.41006527       0.00000000 </v>
    <v>       0.00000000       0.00000000      20.00000000 </v>
   </varray>
   <i name="volume">    948.90835877 </i>
   <varray name="rec_basis" >
    <v>       0.13510399       0.07800233       0.00000000 </v>
    <v>       0.00000000       0.15600465       0.00000000 </v>
    <v>       0.00000000       0.00000000       0.05000000 </v>
   </varray>
  </crystal>
  <varray name="positions" >
   <v>       0.00000000       0.00000000       0.49950000 </v>
   <v>       0.33333333       0.00000000       0.50000000 </v>
   <v>       0.66666667       0.00000000       0.50000000 </v>
   <v>       0.00000000       0.33333333       0.50000000 </v>
   <v>       0.33333333       0.33333333       0.50000000 </v>
   <v>       0.66666667       0.33333333       0.50000000 </v>
   <v>       0.00000000       0.66666667       0.50000000 </v>
   <v>       0.33333333       0.66666667       0.50000000 </v>
   <v>       0.66666667       0.66666667       0.50000000 </v>
   <v>       0.22222222       0.11111111       0.50050000 </v>
   <v>       0.55555556       0.11111111       0.50000000 </v>
   <v>       0.88888889       0.11111111       0.50000000 </v>
   <v>       0.22222222       0.44444444       0.50000000 </v>
   <v>       0.55555556       0.44444444       0.50000000 </v>
   <v>       0.88888889       0.44444444       0.50000000 </v>
   <v>       0.22222222       0.77777778       0.50000000 </v>
   <v>       0.55555556       0.77777778       0.50000000 </v>
   <v>       0.88888889       0.77777778       0.50000000 </v>
  </varray>
 </structure>
</modeling>
