<?xml version="1.0" encoding="ISO-8859-1"?>
<modeling>
 <generator>
  <i name="program" type="string">vasp </i>
  <i name="version" type="string">6.4.1  </i>
  <i name="subversion" type="string">05Apr23 (build Feb 12 2025 00:37:39) complex                          parallel </i>
  <i name="platform" type="string">LinuxIFC </i>
  <i name="date" type="string">2025 02 14 </i>
  <i name="time" type="string">06:47:50 </i>
 </generator>
 <incar>
  <i type="string" name="SYSTEM">SCF</i>
  <i type="int" name="ISTART">     0</i>
  <i type="int" name="ICHARG">     2</i>
  <i type="int" name="NELM">    60</i>
  <i type="int" name="NELMIN">     6</i>
  <i name="EDIFF">      0.00000100</i>
  <i name="EDIFFG">     -0.00000100</i>
  <i name="ENCUT">    600.00000000</i>
  <i type="string" name="LREAL">Auto</i>
  <i type="int" name="ISMEAR">     0</i>
  <i name="SIGMA">      0.05000000</i>
  <i type="logical" name="LWAVE"> F  </i>
  <i type="logical" name="LCHARG"> F  </i>
 </incar>
 <primitive_cell>
  <structure name="primitive_cell" >
   <crystal>
    <varray name="basis" >
     <v>       7.40170591       0.00000000       0.00000000 </v>
     <v>      -3.70085295       6.41006527       0.00000000 </v>
     <v>       0.00000000       0.00000000      20.00000000 </v>
    </varray>
    <i name="volume">    948.90835877 </i>
    <varray name="rec_basis" >
     <v>       0.13510399       0.07800233       0.00000000 </v>
     <v>       0.00000000       0.15600465       0.00000000 </v>
     <v>       0.00000000       0.00000000       0.05000000 </v>
    </varray>
   </crystal>
   <varray name="positions" >
    <v>       0.00000000       0.00000000       0.50050000 </v>
    <v>       0.33333333       0.00000000       0.49950000 </v>
    <v>       0.66666667       0.00000000       0.50000000 </v>
    <v>       1.00000000       0.33333333       0.50000000 </v>
    <v>       0.33333333       0.33333333       0.50000000 </v>
    <v>       0.66666667       0.33333333       0.50000000 </v>
    <v>       1.00000000       0.66666667       0.50000000 </v>
    <v>       0.33333333       0.66666667       0.50000000 </v>
    <v>       0.66666667       0.66666667       0.50000000 </v>
    <v>       0.22222222       0.11111111       0.50000000 </v>
    <v>       0.55555556       0.11111111       0.50000000 </v>
    <v>       0.88888889       0.11111111       0.50000000 </v>
    <v>       0.22222222       0.44444444       0.50000000 </v>
    <v>       0.55555556       0.44444444       0.50000000 </v>
    <v>       0.88888889       0.44444444       0.50000000 </v>
    <v>       0.22222222       0.77777778       0.50000000 </v>
    <v>       0.55555556       0.77777778       0.50000000 </v>
    <v>       0.88888889       0.77777778       0.50000000 </v>
   </varray>
  </structure>
  <varray name="primitive_index" >
   <v type="int" >        1 </v>
   <v type="int" >        2 </v>
   <v type="int" >        3 </v>
   <v type="int" >        4 </v>
   <v type="int" >        5 </v>
   <v type="int" >        6 </v>
   <v type="int" >        7 </v>
   <v type="int" >        8 </v>
   <v type="int" >        9 </v>
   <v type="int" >       10 </v>
   <v type="int" >       11 </v>
   <v type="int" >       12 </v>
   <v type="int" >       13 </v>
   <v type="int" >       14 </v>
   <v type="int" >       15 </v>
   <v type="int" >       16 </v>
   <v type="int" >       17 </v>
   <v type="int" >       18 </v>
  </varray>
 </primitive_cell>
 <kpoints>
  <generation param="Gamma">
   <v type="int" name="divisions">       7        7        1 </v>
   <v name="usershift">      0.00000000       0.00000000       0.00000000 </v>
   <v name="genvec1">      0.14285714       0.00000000       0.00000000 </v>
   <v name="genvec2">      0.00000000       0.14285714       0.00000000 </v>
   <v name="genvec3">      0.00000000       0.00000000       1.00000000 </v>
   <v name="shift">      0.00000000       0.00000000       0.00000000 </v>
  </generation>
  <varray name="kpointlist" >
   <v>       0.00000000       0.00000000       0.00000000 </v>
   <v>       0.14285714       0.00000000       0.00000000 </v>
   <v>       0.00000000       0.14285714       0.00000000 </v>
   <v>       0.28571429       0.00000000       0.00000000 </v>
   <v>       0.00000000       0.28571429       0.00000000 </v>
   <v>       0.42857143       0.00000000       0.00000000 </v>
   <v>       0.00000000       0.42857143       0.00000000 </v>
   <v>       0.14285714       0.14285714       0.00000000 </v>
   <v>      -0.28571429       0.14285714       0.00000000 </v>
   <v>       0.28571429       0.14285714       0.00000000 </v>
   <v>      -0.14285714       0.42857143       0.00000000 </v>
   <v>      -0.42857143       0.28571429       0.00000000 </v>
   <v>       0.42857143       0.14285714       0.00000000 </v>
   <v>      -0.14285714      -0.42857143       0.00000000 </v>
   <v>       0.28571429       0.28571429       0.00000000 </v>
   <v>       0.42857143       0.28571429       0.00000000 </v>
  </varray>
  <varray name="weights" >
   <v>       0.02040816 </v>
   <v>       0.08163265 </v>
   <v>       0.04081633 </v>
   <v>       0.08163265 </v>
   <v>       0.04081633 </v>
   <v>       0.08163265 </v>
   <v>       0.04081633 </v>
   <v>       0.08163265 </v>
   <v>       0.04081633 </v>
   <v>       0.08163265 </v>
   <v>       0.08163265 </v>
   <v>       0.08163265 </v>
   <v>       0.08163265 </v>
   <v>       0.04081633 </v>
   <v>       0.08163265 </v>
   <v>       0.04081633 </v>
  </varray>
 </kpoints>
 <parameters>
  <separator name="general" >
   <i type="string" name="SYSTEM">SCF</i>
   <i type="logical" name="LCOMPAT"> F  </i>
  </separator>
  <separator name="electronic" >
   <i type="string" name="PREC">normal</i>
   <i name="ENMAX">    600.00000000</i>
   <i name="ENAUG">    644.87300000</i>
   <i name="EDIFF">      0.00000100</i>
   <i type="int" name="IALGO">    38</i>
   <i type="int" name="IWAVPR">    10</i>
   <i type="int" name="NBANDS">    46</i>
   <i type="int" name="NBANDSLOW">    -1</i>
   <i type="int" name="NBANDSHIGH">    -1</i>
   <i name="NELECT">     72.00000000</i>
   <i type="int" name="TURBO">     0</i>
   <i type="int" name="IRESTART">     0</i>
   <i type="int" name="NREBOOT">     0</i>
   <i type="int" name="NMIN">     0</i>
   <i name="EREF">      0.00000000</i>
   <separator name="electronic smearing" >
    <i type="int" name="ISMEAR">     0</i>
    <i name="SIGMA">      0.05000000</i>
    <i name="KSPACING">      0.50000000</i>
    <i type="logical" name="KGAMMA"> T  </i>
    <i type="logical" name="KBLOWUP"> T  </i>
   </separator>
   <separator name="electronic projectors" >
    <i type="logical" name="LREAL"> T  </i>
    <v name="ROPT">     -0.00050000</v>
    <i type="int" name="LMAXPAW">  -100</i>
    <i type="int" name="LMAXMIX">     2</i>
    <i type="logical" name="NLSPLINE"> F  </i>
   </separator>
   <separator name="electronic startup" >
    <i type="int" name="ISTART">     0</i>
    <i type="int" name="ICHARG">     2</i>
    <i type="int" name="INIWAV">     1</i>
   </separator>
   <separator name="electronic spin" >
    <i type="int" name="ISPIN">     1</i>
    <i type="logical" name="LNONCOLLINEAR"> F  </i>
    <v name="MAGMOM">      1.00000000      1.00000000      1.00000000      1.00000000      1.00000000      1.00000000      1.00000000      1.00000000      1.00000000      1.00000000      1.00000000      1.00000000      1.00000000      1.00000000      1.00000000      1.00000000      1.00000000      1.00000000</v>
    <i name="NUPDOWN">     -1.00000000</i>
    <i type="logical" name="LSORBIT"> F  </i>
    <v name="SAXIS">      0.00000000      0.00000000      1.00000000</v>
    <i type="logical" name="LSPIRAL"> F  </i>
    <v name="QSPIRAL">      0.00000000      0.00000000      0.00000000</v>
    <i type="logical" name="LZEROZ"> F  </i>
   </separator>
   <separator name="electronic exchange-correlation" >
    <i type="logical" name="LASPH"> F  </i>
    <i type="logical" name="LMETAGGA"> F  </i>
   </separator>
   <separator name="electronic convergence" >
    <i type="int" name="NELM">    60</i>
    <i type="int" name="NELMDL">    -5</i>
    <i type="int" name="NELMIN">     6</i>
    <i name="ENINI">    600.00000000</i>
    <separator name="electronic convergence detail" >
     <i type="logical" name="LDIAG"> T  </i>
     <i type="logical" name="LSUBROT"> F  </i>
     <i name="WEIMIN">      0.00000000</i>
     <i name="EBREAK">      0.00000000</i>
     <i name="DEPER">      0.30000000</i>
     <i type="int" name="NRMM">     4</i>
     <i name="TIME">      0.40000000</i>
    </separator>
   </separator>
   <separator name="electronic mixer" >
    <i name="AMIX">      0.40000000</i>
    <i name="BMIX">      1.00000000</i>
    <i name="AMIN">      0.10000000</i>
    <i name="AMIX_MAG">      1.60000000</i>
    <i name="BMIX_MAG">      1.00000000</i>
    <separator name="electronic mixer details" >
     <i type="int" name="IMIX">     4</i>
     <i type="logical" name="MIXFIRST"> F  </i>
     <i type="int" name="MAXMIX">   -45</i>
     <i name="WC">    100.00000000</i>
     <i type="int" name="INIMIX">     1</i>
     <i type="int" name="MIXPRE">     1</i>
     <i type="int" name="MREMOVE">     5</i>
    </separator>
   </separator>
   <separator name="electronic dipolcorrection" >
    <i type="logical" name="LDIPOL"> F  </i>
    <i type="logical" name="LMONO"> F  </i>
    <i type="int" name="IDIPOL">     0</i>
    <i name="EPSILON">      1.00000000</i>
    <v name="DIPOL">   -100.00000000   -100.00000000   -100.00000000</v>
    <i name="EFIELD">      0.00000000</i>
   </separator>
  </separator>
  <separator name="grids" >
   <i type="int" name="NGX">    48</i>
   <i type="int" name="NGY">    48</i>
   <i type="int" name="NGZ">   120</i>
   <i type="int" name="NGXF">    96</i>
   <i type="int" name="NGYF">    96</i>
   <i type="int" name="NGZF">   240</i>
   <i type="logical" name="ADDGRID"> F  </i>
  </separator>
  <separator name="ionic" >
   <i type="int" name="NSW">     0</i>
   <i type="int" name="IBRION">    -1</i>
   <i type="int" name="MDALGO">     0</i>
   <i type="int" name="ISIF">     2</i>
   <i name="PSTRESS">      0.00000000</i>
   <i name="EDIFFG">     -0.00000100</i>
   <i type="int" name="NFREE">     0</i>
   <i name="POTIM">      0.50000000</i>
   <i name="SMASS">     -3.00000000</i>
   <i name="SCALEE">      1.00000000</i>
  </separator>
  <separator name="ionic md" >
   <i name="TEBEG">      0.00010000</i>
   <i name="TEEND">      0.00010000</i>
   <i type="int" name="NBLOCK">     1</i>
   <i type="int" name="KBLOCK">     1</i>
   <i type="int" name="NPACO">   256</i>
   <i name="APACO">     10.00000000</i>
  </separator>
  <separator name="symmetry" >
   <i type="int" name="ISYM">     2</i>
   <i name="SYMPREC">      0.00001000</i>
  </separator>
  <separator name="dos" >
   <i type="int" name="LORBIT">     0</i>
   <v name="RWIGS">     -1.00000000</v>
   <i type="int" name="NEDOS">   301</i>
   <i name="EMIN">     10.00000000</i>
   <i name="EMAX">    -10.00000000</i>
   <i name="EFERMI">      0.00000000</i>
  </separator>
  <separator name="writing" >
   <i type="int" name="NWRITE">     2</i>
   <i type="logical" name="LWAVE"> F  </i>
   <i type="logical" name="LDOWNSAMPLE"> F  </i>
   <i type="logical" name="LCHARG"> F  </i>
   <i type="logical" name="LPARD"> F  </i>
   <i type="logical" name="LVTOT"> F  </i>
   <i type="logical" name="LVHAR"> F  </i>
   <i type="logical" name="LELF"> F  </i>
   <i type="logical" name="LOPTICS"> F  </i>
   <v name="STM">      0.00000000      0.00000000      0.00000000      0.00000000      0.00000000      0.00000000      0.00000000</v>
  </separator>
  <separator name="performance" >
   <i type="int" name="NPAR">     2</i>
   <i type="int" name="NSIM">     4</i>
   <i type="int" name="NBLK">    -1</i>
   <i type="logical" name="LPLANE"> T  </i>
   <i type="logical" name="LSCALAPACK"> T  </i>
   <i type="logical" name="LSCAAWARE"> F  </i>
   <i type="logical" name="LSCALU"> F  </i>
   <i type="logical" name="LASYNC"> F  </i>
   <i type="logical" name="LORBITALREAL"> F  </i>
  </separator>
  <separator name="miscellaneous" >
   <i type="int" name="IDIOT">     3</i>
   <i type="int" name="PHON_NSTRUCT">    -1</i>
   <i type="logical" name="LMUSIC"> F  </i>
   <v name="POMASS">     12.01100000</v>
   <v name="DARWINR">      0.00000000</v>
   <v name="DARWINV">      1.00000000</v>
   <i type="logical" name="LCORR"> T  </i>
  </separator>
  <i type="logical" name="GGA_COMPAT"> T  </i>
  <i type="logical" name="LBERRY"> F  </i>
  <i type="int" name="ICORELEVEL">     0</i>
  <i type="logical" name="LDAU"> F  </i>
  <i type="int" name="I_CONSTRAINED_M">     0</i>
  <separator name="electronic exchange-correlation" >
   <i type="string" name="GGA">--</i>
   <i type="int" name="VOSKOWN">     0</i>
   <i type="logical" name="LHFCALC"> F  </i>
   <i type="string" name="PRECFOCK"></i>
   <i type="logical" name="LSYMGRAD"> F  </i>
   <i type="logical" name="LHFONE"> F  </i>
   <i type="logical" name="LRHFCALC"> F  </i>
   <i type="logical" name="LTHOMAS"> F  </i>
   <i type="logical" name="LMODELHF"> F  </i>
   <i type="logical" name="LFOCKACE"> F  </i>
   <i name="ENCUT4O">     -1.00000000</i>
   <i type="int" name="EXXOEP">     0</i>
   <i type="int" name="FOURORBIT">     0</i>
   <i name="AEXX">      0.00000000</i>
   <i name="HFALPHA">      0.00000000</i>
   <i name="MCALPHA">      0.00000000</i>
   <i name="ALDAX">      1.00000000</i>
   <i name="AGGAX">      1.00000000</i>
   <i name="ALDAC">      1.00000000</i>
   <i name="AGGAC">      1.00000000</i>
   <i type="int" name="NKREDX">     1</i>
   <i type="int" name="NKREDY">     1</i>
   <i type="int" name="NKREDZ">     1</i>
   <i type="logical" name="SHIFTRED"> F  </i>
   <i type="logical" name="ODDONLY"> F  </i>
   <i type="logical" name="EVENONLY"> F  </i>
   <i type="int" name="LMAXFOCK">     0</i>
   <i type="int" name="NMAXFOCKAE">     0</i>
   <i type="logical" name="LFOCKAEDFT"> F  </i>
   <i name="HFSCREEN">      0.00000000</i>
   <i name="HFSCREENC">      0.00000000</i>
   <i type="int" name="NBANDSGWLOW">     0</i>
  </separator>
  <separator name="vdW DFT" >
   <i type="logical" name="LUSE_VDW"> F  </i>
   <i type="int" name="IVDW_NL">     1</i>
   <i type="logical" name="LSPIN_VDW"> F  </i>
   <i name="Zab_VDW">     -0.84910000</i>
   <i name="PARAM1">      0.12340000</i>
   <i name="PARAM2">      1.00000000</i>
   <i name="PARAM3">      0.00000000</i>
  </separator>
  <separator name="model GW" >
   <i type="int" name="MODEL_GW">     0</i>
   <i name="MODEL_EPS0">     31.63027863</i>
   <i name="MODEL_ALPHA">      1.00000000</i>
  </separator>
  <separator name="linear response parameters" >
   <i type="logical" name="LEPSILON"> F  </i>
   <i type="logical" name="LRPA"> F  </i>
   <i type="logical" name="LNABLA"> F  </i>
   <i type="logical" name="LVEL"> F  </i>
   <i name="CSHIFT">      0.10000000</i>
   <i name="OMEGAMAX">     -1.00000000</i>
   <i name="DEG_THRESHOLD">      0.00200000</i>
   <i name="RTIME">     -0.10000000</i>
   <i name="WPLASMAI">      0.00000000</i>
   <v name="DFIELD">      0.00000000      0.00000000      0.00000000</v>
   <v name="WPLASMA">      0.00000000      0.00000000      0.00000000      0.00000000      0.00000000      0.00000000      0.00000000      0.00000000      0.00000000</v>
  </separator>
  <separator name="orbital magnetization" >
   <i type="logical" name="NUCIND"> F  </i>
   <v name="MAGPOS">      0.00000000      0.00000000      0.00000000</v>
   <i type="logical" name="LNICSALL"> T  </i>
   <i type="logical" name="ORBITALMAG"> F  </i>
   <i type="logical" name="LMAGBLOCH"> F  </i>
   <i type="logical" name="LCHIMAG"> F  </i>
   <i type="logical" name="LGAUGE"> T  </i>
   <i type="int" name="MAGATOM">     0</i>
   <v name="MAGDIPOL">      0.00000000      0.00000000      0.00000000</v>
   <v name="AVECCONST">      0.00000000      0.00000000      0.00000000</v>
  </separator>
  <separator name="response functions" >
   <i type="logical" name="LALL_IN_ONE"> F  </i>
   <i type="int" name="IALL_IN_ONE">    -1</i>
   <i type="int" name="NBANDS_WAVE">    -1</i>
   <i type="logical" name="LFINITE_TEMPERATURE"> F  </i>
   <i type="logical" name="LADDER"> F  </i>
   <i type="logical" name="LRPAFORCE"> F  </i>
   <i type="logical" name="LFXC"> F  </i>
   <i type="logical" name="LHARTREE"> T  </i>
   <i type="int" name="IBSE">     0</i>
   <v type="int" name="KPOINT">    -1     0     0     0</v>
   <i type="logical" name="LTCTC"> F  </i>
   <i type="logical" name="LTCTE"> F  </i>
   <i type="logical" name="LTETE"> F  </i>
   <i type="logical" name="LTRIPLET"> F  </i>
   <i type="logical" name="LFXCEPS"> F  </i>
   <i type="logical" name="LFXHEG"> F  </i>
   <i type="int" name="NATURALO">     2</i>
   <i type="logical" name="LHOLEGF"> F  </i>
   <i type="logical" name="L2ORDER"> F  </i>
   <i type="logical" name="LDMP1"> F  </i>
   <i type="logical" name="LMP2LT"> F  </i>
   <i type="logical" name="LSMP2LT"> F  </i>
   <i type="logical" name="LGWLF"> F  </i>
   <i name="ENCUTGW">     -1.60000002</i>
   <i name="ENCUTGWSOFT">     -1.60000002</i>
   <i name="ENCUTLF">     -1.00000000</i>
   <i type="logical" name="LESF_SPLINES"> F  </i>
   <i type="int" name="LMAXMP2">    -1</i>
   <i name="SCISSOR">      0.00000000</i>
   <i type="int" name="NOMEGA">     0</i>
   <i type="int" name="NOMEGAR">     0</i>
   <i type="int" name="NBANDSGW">    -1</i>
   <i type="int" name="NBANDSO">    -1</i>
   <i type="int" name="NBANDSV">    -1</i>
   <i type="int" name="NELMGW">     1</i>
   <i type="int" name="NELMHF">     1</i>
   <i type="int" name="DIM">     3</i>
   <i type="int" name="IESPILON">     4</i>
   <i type="int" name="ANTIRES">     0</i>
   <i name="OMEGAMAX">    -30.00000000</i>
   <i name="OMEGAMIN">    -30.00000000</i>
   <i name="OMEGATL">   -200.00000000</i>
   <i type="int" name="OMEGAGRID">     0</i>
   <i name="CSHIFT">     -0.10000000</i>
   <i type="logical" name="LSELFENERGY"> F  </i>
   <i type="logical" name="LSPECTRAL"> F  </i>
   <i type="logical" name="LSPECTRALGW"> F  </i>
   <i type="logical" name="LSINGLES"> F  </i>
   <i type="logical" name="LFERMIGW"> F  </i>
   <i type="logical" name="ODDONLYGW"> F  </i>
   <i type="logical" name="EVENONLYGW"> F  </i>
   <i type="int" name="NKREDLFX">     1</i>
   <i type="int" name="NKREDLFY">     1</i>
   <i type="int" name="NKREDLFZ">     1</i>
   <i type="int" name="MAXMEM">  2800</i>
   <i type="int" name="TELESCOPE">     0</i>
   <i type="int" name="NTAUPAR">    -1</i>
   <i type="int" name="NOMEGAPAR">    -1</i>
   <i name="DAMP_NEWTON">      0.80000001</i>
   <i name="LAMBDA">      1.00000000</i>
  </separator>
  <separator name="External order field" >
   <i name="OFIELD_KAPPA">      0.00000000</i>
   <v name="OFIELD_K">      0.00000000      0.00000000      0.00000000</v>
   <i name="OFIELD_Q6_NEAR">      0.00000000</i>
   <i name="OFIELD_Q6_FAR">      0.00000000</i>
   <i name="OFIELD_A">      0.00000000</i>
  </separator>
  <separator name="optional k-points parameters" >
   <i type="int" name="KPOINTS_OPT_MODE">     1</i>
   <i type="logical" name="LKPOINTS_OPT"> F  </i>
  </separator>
 </parameters>
 <atominfo>
  <atoms>      18 </atoms>
  <types>       1 </types>
  <array name="atoms" >
   <dimension dim="1">ion</dimension>
   <field type="string">element</field>
   <field type="int">atomtype</field>
   <set>
    <rc><c>C </c><c>   1</c></rc>
    <rc><c>C </c><c>   1</c></rc>
    <rc><c>C </c><c>   1</c></rc>
    <rc><c>C </c><c>   1</c></rc>
    <rc><c>C </c><c>   1</c></rc>
    <rc><c>C </c><c>   1</c></rc>
    <rc><c>C </c><c>   1</c></rc>
    <rc><c>C </c><c>   1</c></rc>
    <rc><c>C </c><c>   1</c></rc>
    <rc><c>C </c><c>   1</c></rc>
    <rc><c>C </c><c>   1</c></rc>
    <rc><c>C </c><c>   1</c></rc>
    <rc><c>C </c><c>   1</c></rc>
    <rc><c>C </c><c>   1</c></rc>
    <rc><c>C </c><c>   1</c></rc>
    <rc><c>C </c><c>   1</c></rc>
    <rc><c>C </c><c>   1</c></rc>
    <rc><c>C </c><c>   1</c></rc>
   </set>
  </array>
  <array name="atomtypes" >
   <dimension dim="1">type</dimension>
   <field type="int">atomspertype</field>
   <field type="string">element</field>
   <field>mass</field>
   <field>valence</field>
   <field type="string">pseudopotential</field>
   <set>
    <rc><c>  18</c><c>C </c><c>     12.01100000</c><c>      4.00000000</c><c>  PAW_PBE C 08Apr2002                   </c></rc>
   </set>
  </array>
 </atominfo>
 <structure name="initialpos" >
  <crystal>
   <varray name="basis" >
    <v>       7.40170591       0.00000000       0.00000000 </v>
    <v>      -3.70085295       6.41006527       0.00000000 </v>
    <v>       0.00000000       0.00000000      20.00000000 </v>
   </varray>
   <i name="volume">    948.90835877 </i>
   <varray name="rec_basis" >
    <v>       0.13510399       0.07800233       0.00000000 </v>
    <v>       0.00000000       0.15600465       0.00000000 </v>
    <v>       0.00000000       0.00000000       0.05000000 </v>
   </varray>
  </crystal>
  <varray name="positions" >
   <v>       0.00000000       0.00000000       0.50050000 </v>
   <v>       0.33333333       0.00000000       0.49950000 </v>
   <v>       0.66666667       0.00000000       0.50000000 </v>
   <v>       0.00000000       0.33333333       0.50000000 </v>
   <v>       0.33333333       0.33333333       0.50000000 </v>
   <v>       0.66666667       0.33333333       0.50000000 </v>
   <v>       0.00000000       0.66666667       0.50000000 </v>
   <v>       0.33333333       0.66666667       0.50000000 </v>
   <v>       0.66666667       0.66666667       0.50000000 </v>
   <v>       0.22222222       0.11111111       0.50000000 </v>
   <v>       0.55555556       0.11111111       0.50000000 </v>
   <v>       0.88888889       0.11111111       0.50000000 </v>
   <v>       0.22222222       0.44444444       0.50000000 </v>
   <v>       0.55555556       0.44444444       0.50000000 </v>
   <v>       0.88888889       0.44444444       0.50000000 </v>
   <v>       0.22222222       0.77777778       0.50000000 </v>
   <v>       0.55555556       0.77777778       0.50000000 </v>
   <v>       0.88888889       0.77777778       0.50000000 </v>
  </varray>
 </structure>
 <calculation>
  <scstep>
   <time name="dav">    3.75    3.83</time>
   <time name="total">    3.84    3.92</time>
   <energy>
    <i name="alphaZ">     28.04858418 </i>
    <i name="ewald">  11638.80235632 </i>
    <i name="hartreedc"> -13553.13234351 </i>
    <i name="XCdc">    237.17687505 </i>
    <i name="pawpsdc">   1953.39683484 </i>
    <i name="pawaedc">  -1963.64613940 </i>
    <i name="eentropy">     -0.01222914 </i>
    <i name="bandstr">   -254.89637696 </i>
    <i name="atom">   2648.70517965 </i>
    <i name="e_fr_energy">    734.44274103 </i>
    <i name="e_wo_entrp">    734.45497017 </i>
    <i name="e_0_energy">    734.44885560 </i>
   </energy>
  </scstep>
  <scstep>
   <time name="dav">    5.06    5.17</time>
   <time name="total">    5.06    5.17</time>
   <energy>
    <i name="e_fr_energy">    -25.04451303 </i>
    <i name="e_wo_entrp">    -25.04408504 </i>
    <i name="e_0_energy">    -25.04429903 </i>
   </energy>
  </scstep>
  <scstep>
   <time name="dav">    4.09    3.49</time>
   <time name="total">    4.09    3.49</time>
   <energy>
    <i name="e_fr_energy">   -172.42193192 </i>
    <i name="e_wo_entrp">   -172.42065013 </i>
    <i name="e_0_energy">   -172.42129103 </i>
   </energy>
  </scstep>
  <scstep>
   <time name="dav">    4.07    4.15</time>
   <time name="total">    4.07    4.15</time>
   <energy>
    <i name="e_fr_energy">   -177.35458991 </i>
    <i name="e_wo_entrp">   -177.35229598 </i>
    <i name="e_0_energy">   -177.35344295 </i>
   </energy>
  </scstep>
  <scstep>
   <time name="dav">    4.57    4.67</time>
   <time name="total">    4.75    4.85</time>
   <energy>
    <i name="e_fr_energy">   -177.48646571 </i>
    <i name="e_wo_entrp">   -177.48416290 </i>
    <i name="e_0_energy">   -177.48531430 </i>
   </energy>
  </scstep>
  <scstep>
   <time name="dav">    3.80    3.88</time>
   <time name="total">    4.05    4.14</time>
   <energy>
    <i name="e_fr_energy">   -169.32070136 </i>
    <i name="e_wo_entrp">   -169.31839855 </i>
    <i name="e_0_energy">   -169.31954996 </i>
   </energy>
  </scstep>
  <scstep>
   <time name="dav">    3.77    3.85</time>
   <time name="total">    4.02    4.11</time>
   <energy>
    <i name="e_fr_energy">   -166.15279823 </i>
    <i name="e_wo_entrp">   -166.15049543 </i>
    <i name="e_0_energy">   -166.15164683 </i>
   </energy>
  </scstep>
  <scstep>
   <time name="dav">    3.95    4.04</time>
   <time name="total">    4.21    4.30</time>
   <energy>
    <i name="e_fr_energy">   -166.08985342 </i>
    <i name="e_wo_entrp">   -166.08755061 </i>
    <i name="e_0_energy">   -166.08870201 </i>
   </energy>
  </scstep>
  <scstep>
   <time name="dav">    4.08    4.16</time>
   <time name="total">    4.34    4.43</time>
   <energy>
    <i name="e_fr_energy">   -166.07719584 </i>
    <i name="e_wo_entrp">   -166.07489304 </i>
    <i name="e_0_energy">   -166.07604444 </i>
   </energy>
  </scstep>
  <scstep>
   <time name="dav">    3.74    3.13</time>
   <time name="total">    4.00    3.40</time>
   <energy>
    <i name="e_fr_energy">   -166.05833568 </i>
    <i name="e_wo_entrp">   -166.05603288 </i>
    <i name="e_0_energy">   -166.05718428 </i>
   </energy>
  </scstep>
  <scstep>
   <time name="dav">    3.81    3.89</time>
   <time name="total">    4.07    4.15</time>
   <energy>
    <i name="e_fr_energy">   -166.06305215 </i>
    <i name="e_wo_entrp">   -166.06074935 </i>
    <i name="e_0_energy">   -166.06190075 </i>
   </energy>
  </scstep>
  <scstep>
   <time name="dav">    3.55    3.62</time>
   <time name="total">    3.81    3.88</time>
   <energy>
    <i name="e_fr_energy">   -166.06746474 </i>
    <i name="e_wo_entrp">   -166.06516194 </i>
    <i name="e_0_energy">   -166.06631334 </i>
   </energy>
  </scstep>
  <scstep>
   <time name="dav">    3.74    3.83</time>
   <time name="total">    4.00    4.09</time>
   <energy>
    <i name="e_fr_energy">   -166.07240711 </i>
    <i name="e_wo_entrp">   -166.07010431 </i>
    <i name="e_0_energy">   -166.07125571 </i>
   </energy>
  </scstep>
  <scstep>
   <time name="dav">    3.59    3.68</time>
   <time name="total">    3.87    3.96</time>
   <energy>
    <i name="e_fr_energy">   -166.07545768 </i>
    <i name="e_wo_entrp">   -166.07315488 </i>
    <i name="e_0_energy">   -166.07430628 </i>
   </energy>
  </scstep>
  <scstep>
   <time name="dav">    4.03    4.12</time>
   <time name="total">    4.30    4.40</time>
   <energy>
    <i name="e_fr_energy">   -166.07615090 </i>
    <i name="e_wo_entrp">   -166.07384810 </i>
    <i name="e_0_energy">   -166.07499950 </i>
   </energy>
  </scstep>
  <scstep>
   <time name="dav">    3.66    3.74</time>
   <time name="total">    3.92    4.01</time>
   <energy>
    <i name="e_fr_energy">   -166.07636206 </i>
    <i name="e_wo_entrp">   -166.07405926 </i>
    <i name="e_0_energy">   -166.07521066 </i>
   </energy>
  </scstep>
  <scstep>
   <time name="dav">    3.47    3.54</time>
   <time name="total">    3.73    3.81</time>
   <energy>
    <i name="e_fr_energy">   -166.07643117 </i>
    <i name="e_wo_entrp">   -166.07412837 </i>
    <i name="e_0_energy">   -166.07527977 </i>
   </energy>
  </scstep>
  <scstep>
   <time name="dav">    3.33    2.70</time>
   <time name="total">    3.59    2.97</time>
   <energy>
    <i name="e_fr_energy">   -166.07647649 </i>
    <i name="e_wo_entrp">   -166.07417369 </i>
    <i name="e_0_energy">   -166.07532509 </i>
   </energy>
  </scstep>
  <scstep>
   <time name="dav">    3.41    3.48</time>
   <time name="total">    3.68    3.76</time>
   <energy>
    <i name="e_fr_energy">   -166.07650677 </i>
    <i name="e_wo_entrp">   -166.07420396 </i>
    <i name="e_0_energy">   -166.07535537 </i>
   </energy>
  </scstep>
  <scstep>
   <time name="dav">    2.94    3.00</time>
   <time name="total">    3.20    3.27</time>
   <energy>
    <i name="e_fr_energy">   -166.07652322 </i>
    <i name="e_wo_entrp">   -166.07422041 </i>
    <i name="e_0_energy">   -166.07537182 </i>
   </energy>
  </scstep>
  <scstep>
   <time name="dav">    2.54    2.59</time>
   <time name="total">    2.80    2.86</time>
   <energy>
    <i name="e_fr_energy">   -166.07652671 </i>
    <i name="e_wo_entrp">   -166.07422390 </i>
    <i name="e_0_energy">   -166.07537531 </i>
   </energy>
  </scstep>
  <scstep>
   <time name="dav">    2.63    2.68</time>
   <time name="total">    2.71    2.77</time>
   <energy>
    <i name="alphaZ">     28.04858418 </i>
    <i name="ewald">  11638.80235632 </i>
    <i name="hartreedc"> -13861.45980782 </i>
    <i name="XCdc">    247.81305445 </i>
    <i name="pawpsdc">   7452.59837870 </i>
    <i name="pawaedc">  -7464.86160730 </i>
    <i name="eentropy">     -0.00230280 </i>
    <i name="bandstr">   -855.72036281 </i>
    <i name="atom">   2648.70517965 </i>
    <i name="e_fr_energy">   -166.07652744 </i>
    <i name="e_wo_entrp">   -166.07422463 </i>
    <i name="e_0_energy">   -166.07537603 </i>
   </energy>
  </scstep>
  <structure>
   <crystal>
    <varray name="basis" >
     <v>       7.40170591       0.00000000       0.00000000 </v>
     <v>      -3.70085295       6.41006527       0.00000000 </v>
     <v>       0.00000000       0.00000000      20.00000000 </v>
    </varray>
    <i name="volume">    948.90835877 </i>
    <varray name="rec_basis" >
     <v>       0.13510399       0.07800233       0.00000000 </v>
     <v>       0.00000000       0.15600465       0.00000000 </v>
     <v>       0.00000000       0.00000000       0.05000000 </v>
    </varray>
   </crystal>
   <varray name="positions" >
    <v>       0.00000000       0.00000000       0.50050000 </v>
    <v>       0.33333333       0.00000000       0.49950000 </v>
    <v>       0.66666667       0.00000000       0.50000000 </v>
    <v>       0.00000000       0.33333333       0.50000000 </v>
    <v>       0.33333333       0.33333333       0.50000000 </v>
    <v>       0.66666667       0.33333333       0.50000000 </v>
    <v>       0.00000000       0.66666667       0.50000000 </v>
    <v>       0.33333333       0.66666667       0.50000000 </v>
    <v>       0.66666667       0.66666667       0.50000000 </v>
    <v>       0.22222222       0.11111111       0.50000000 </v>
    <v>       0.55555556       0.11111111       0.50000000 </v>
    <v>       0.88888889       0.11111111       0.50000000 </v>
    <v>       0.22222222       0.44444444       0.50000000 </v>
    <v>       0.55555556       0.44444444       0.50000000 </v>
    <v>       0.88888889       0.44444444       0.50000000 </v>
    <v>       0.22222222       0.77777778       0.50000000 </v>
    <v>       0.55555556       0.77777778       0.50000000 </v>
    <v>       0.88888889       0.77777778       0.50000000 </v>
   </varray>
  </structure>
  <varray name="forces" >
   <v>       0.00024434      -0.00005566      -0.13917642 </v>
   <v>      -0.00024434      -0.00005566       0.13917642 </v>
   <v>       0.00000000       0.00007809       0.00000000 </v>
   <v>      -0.00003724      -0.00000346      -0.00696874 </v>
   <v>       0.00000000      -0.00001137       0.00000000 </v>
   <v>       0.00003724      -0.00000346       0.00696874 </v>
   <v>       0.00000000      -0.00004010       0.00000000 </v>
   <v>      -0.00002558      -0.00002936       0.00696948 </v>
   <v>       0.00002558      -0.00002936      -0.00696948 </v>
   <v>      -0.00000000      -0.00066276       0.00000000 </v>
   <v>      -0.00055282      -0.00025461      -0.07079414 </v>
   <v>       0.00055282      -0.00025461       0.07079414 </v>
   <v>      -0.00000974       0.00001846       0.01247153 </v>
   <v>       0.00000974       0.00001846      -0.01247153 </v>
   <v>       0.00000000      -0.00004176       0.00000000 </v>
   <v>       0.00000954       0.00067717      -0.05832400 </v>
   <v>       0.00000000      -0.00002718       0.00000000 </v>
   <v>      -0.00000954       0.00067717       0.05832400 </v>
  </varray>
  <varray name="stress" >
   <v>      -0.17150750      -0.00000000       0.00002111 </v>
   <v>      -0.00000000      -0.17039812       0.00000000 </v>
   <v>       0.00002110       0.00000000      -0.57443338 </v>
  </varray>
  <energy>
   <i name="e_fr_energy">   -166.07652744 </i>
   <i name="e_wo_entrp">   -166.07422463 </i>
   <i name="e_0_energy">   -166.07537603 </i>
  </energy>
  <time name="totalsc">   89.54   89.40</time>
  <eigenvalues>
   <array>
    <dimension dim="1">band</dimension>
    <dimension dim="2">kpoint</dimension>
    <dimension dim="3">spin</dimension>
    <field>eigene</field>
    <field>occ</field>
    <set>
     <set comment="spin 1">
      <set comment="kpoint 1">
       <r>  -22.2558    1.0000 </r>
       <r>  -19.6733    1.0000 </r>
       <r>  -19.6733    1.0000 </r>
       <r>  -19.6733    1.0000 </r>
       <r>  -19.6733    1.0000 </r>
       <r>  -19.6732    1.0000 </r>
       <r>  -19.6731    1.0000 </r>
       <r>  -15.3407    1.0000 </r>
       <r>  -15.3407    1.0000 </r>
       <r>  -15.3407    1.0000 </r>
       <r>  -15.3406    1.0000 </r>
       <r>  -13.2895    1.0000 </r>
       <r>  -13.2895    1.0000 </r>
       <r>  -12.3747    1.0000 </r>
       <r>  -12.3747    1.0000 </r>
       <r>  -12.3747    1.0000 </r>
       <r>  -12.3746    1.0000 </r>
       <r>  -12.3745    1.0000 </r>
       <r>  -12.3745    1.0000 </r>
       <r>  -10.3597    1.0000 </r>
       <r>   -8.5237    1.0000 </r>
       <r>   -8.5236    1.0000 </r>
       <r>   -8.5236    1.0000 </r>
       <r>   -8.5236    1.0000 </r>
       <r>   -8.5235    1.0000 </r>
       <r>   -8.5235    1.0000 </r>
       <r>   -7.3709    1.0000 </r>
       <r>   -7.3709    1.0000 </r>
       <r>   -7.3708    1.0000 </r>
       <r>   -7.3707    1.0000 </r>
       <r>   -7.3706    1.0000 </r>
       <r>   -7.3705    1.0000 </r>
       <r>   -5.7846    1.0000 </r>
       <r>   -5.7845    1.0000 </r>
       <r>   -2.7555    0.5020 </r>
       <r>   -2.7553    0.5001 </r>
       <r>   -2.7552    0.4993 </r>
       <r>   -2.7552    0.4987 </r>
       <r>    0.5194    0.0000 </r>
       <r>    1.3119    0.0000 </r>
       <r>    1.6345    0.0000 </r>
       <r>    2.1432    0.0000 </r>
       <r>    2.1434    0.0000 </r>
       <r>    2.1441    0.0000 </r>
       <r>    2.1442    0.0000 </r>
       <r>    2.1442    0.0000 </r>
      </set>
      <set comment="kpoint 2">
       <r>  -22.2022    1.0000 </r>
       <r>  -20.3488    1.0000 </r>
       <r>  -19.9841    1.0000 </r>
       <r>  -19.9841    1.0000 </r>
       <r>  -19.2624    1.0000 </r>
       <r>  -19.2624    1.0000 </r>
       <r>  -18.9061    1.0000 </r>
       <r>  -15.9952    1.0000 </r>
       <r>  -15.9952    1.0000 </r>
       <r>  -14.9132    1.0000 </r>
       <r>  -14.9132    1.0000 </r>
       <r>  -13.5975    1.0000 </r>
       <r>  -12.9701    1.0000 </r>
       <r>  -12.9701    1.0000 </r>
       <r>  -12.9562    1.0000 </r>
       <r>  -12.9562    1.0000 </r>
       <r>  -11.7351    1.0000 </r>
       <r>  -11.7350    1.0000 </r>
       <r>  -11.1177    1.0000 </r>
       <r>  -10.2958    1.0000 </r>
       <r>   -8.8635    1.0000 </r>
       <r>   -8.8634    1.0000 </r>
       <r>   -8.8292    1.0000 </r>
       <r>   -8.5097    1.0000 </r>
       <r>   -8.5096    1.0000 </r>
       <r>   -8.1319    1.0000 </r>
       <r>   -8.1268    1.0000 </r>
       <r>   -7.7133    1.0000 </r>
       <r>   -7.7131    1.0000 </r>
       <r>   -6.9227    1.0000 </r>
       <r>   -6.9226    1.0000 </r>
       <r>   -6.5570    1.0000 </r>
       <r>   -6.0046    1.0000 </r>
       <r>   -5.9002    1.0000 </r>
       <r>   -3.5267    1.0000 </r>
       <r>   -3.5266    1.0000 </r>
       <r>   -2.0048    0.0000 </r>
       <r>   -2.0046    0.0000 </r>
       <r>    0.5919    0.0000 </r>
       <r>    0.8749    0.0000 </r>
       <r>    1.3855    0.0000 </r>
       <r>    1.4734    0.0000 </r>
       <r>    1.4737    0.0000 </r>
       <r>    1.7091    0.0000 </r>
       <r>    2.6300    0.0000 </r>
       <r>    2.7607    0.0000 </r>
      </set>
      <set comment="kpoint 3">
       <r>  -22.2022    1.0000 </r>
       <r>  -20.3488    1.0000 </r>
       <r>  -19.9841    1.0000 </r>
       <r>  -19.9841    1.0000 </r>
       <r>  -19.2624    1.0000 </r>
       <r>  -19.2624    1.0000 </r>
       <r>  -18.9061    1.0000 </r>
       <r>  -15.9952    1.0000 </r>
       <r>  -15.9952    1.0000 </r>
       <r>  -14.9132    1.0000 </r>
       <r>  -14.9132    1.0000 </r>
       <r>  -13.5975    1.0000 </r>
       <r>  -12.9702    1.0000 </r>
       <r>  -12.9701    1.0000 </r>
       <r>  -12.9562    1.0000 </r>
       <r>  -12.9562    1.0000 </r>
       <r>  -11.7351    1.0000 </r>
       <r>  -11.7350    1.0000 </r>
       <r>  -11.1176    1.0000 </r>
       <r>  -10.2958    1.0000 </r>
       <r>   -8.8635    1.0000 </r>
       <r>   -8.8634    1.0000 </r>
       <r>   -8.8292    1.0000 </r>
       <r>   -8.5098    1.0000 </r>
       <r>   -8.5096    1.0000 </r>
       <r>   -8.1321    1.0000 </r>
       <r>   -8.1266    1.0000 </r>
       <r>   -7.7133    1.0000 </r>
       <r>   -7.7131    1.0000 </r>
       <r>   -6.9228    1.0000 </r>
       <r>   -6.9227    1.0000 </r>
       <r>   -6.5569    1.0000 </r>
       <r>   -6.0047    1.0000 </r>
       <r>   -5.9002    1.0000 </r>
       <r>   -3.5267    1.0000 </r>
       <r>   -3.5266    1.0000 </r>
       <r>   -2.0048    0.0000 </r>
       <r>   -2.0046    0.0000 </r>
       <r>    0.5920    0.0000 </r>
       <r>    0.8747    0.0000 </r>
       <r>    1.3855    0.0000 </r>
       <r>    1.4734    0.0000 </r>
       <r>    1.4737    0.0000 </r>
       <r>    1.7091    0.0000 </r>
       <r>    2.6300    0.0000 </r>
       <r>    2.7604    0.0000 </r>
      </set>
      <set comment="kpoint 4">
       <r>  -22.0417    1.0000 </r>
       <r>  -20.9265    1.0000 </r>
       <r>  -20.1926    1.0000 </r>
       <r>  -20.1926    1.0000 </r>
       <r>  -18.7553    1.0000 </r>
       <r>  -18.7552    1.0000 </r>
       <r>  -18.0629    1.0000 </r>
       <r>  -16.7451    1.0000 </r>
       <r>  -16.7451    1.0000 </r>
       <r>  -14.7530    1.0000 </r>
       <r>  -14.6244    1.0000 </r>
       <r>  -14.6243    1.0000 </r>
       <r>  -13.4994    1.0000 </r>
       <r>  -13.4993    1.0000 </r>
       <r>  -12.1838    1.0000 </r>
       <r>  -12.1837    1.0000 </r>
       <r>  -11.0980    1.0000 </r>
       <r>  -11.0979    1.0000 </r>
       <r>  -10.1047    1.0000 </r>
       <r>   -9.8599    1.0000 </r>
       <r>   -9.4952    1.0000 </r>
       <r>   -9.4951    1.0000 </r>
       <r>   -9.0381    1.0000 </r>
       <r>   -8.7927    1.0000 </r>
       <r>   -8.7612    1.0000 </r>
       <r>   -8.7600    1.0000 </r>
       <r>   -7.9447    1.0000 </r>
       <r>   -7.9446    1.0000 </r>
       <r>   -7.6712    1.0000 </r>
       <r>   -6.6226    1.0000 </r>
       <r>   -6.3776    1.0000 </r>
       <r>   -6.3774    1.0000 </r>
       <r>   -6.2166    1.0000 </r>
       <r>   -5.7648    1.0000 </r>
       <r>   -4.2989    1.0000 </r>
       <r>   -4.2989    1.0000 </r>
       <r>   -1.2830    0.0000 </r>
       <r>   -1.2828    0.0000 </r>
       <r>   -0.2382    0.0000 </r>
       <r>    0.7847    0.0000 </r>
       <r>    0.7876    0.0000 </r>
       <r>    0.8131    0.0000 </r>
       <r>    1.6062    0.0000 </r>
       <r>    1.9325    0.0000 </r>
       <r>    2.3340    0.0000 </r>
       <r>    2.8513    0.0000 </r>
      </set>
      <set comment="kpoint 5">
       <r>  -22.0417    1.0000 </r>
       <r>  -20.9265    1.0000 </r>
       <r>  -20.1926    1.0000 </r>
       <r>  -20.1926    1.0000 </r>
       <r>  -18.7553    1.0000 </r>
       <r>  -18.7552    1.0000 </r>
       <r>  -18.0629    1.0000 </r>
       <r>  -16.7451    1.0000 </r>
       <r>  -16.7451    1.0000 </r>
       <r>  -14.7530    1.0000 </r>
       <r>  -14.6244    1.0000 </r>
       <r>  -14.6243    1.0000 </r>
       <r>  -13.4994    1.0000 </r>
       <r>  -13.4993    1.0000 </r>
       <r>  -12.1837    1.0000 </r>
       <r>  -12.1837    1.0000 </r>
       <r>  -11.0980    1.0000 </r>
       <r>  -11.0979    1.0000 </r>
       <r>  -10.1045    1.0000 </r>
       <r>   -9.8600    1.0000 </r>
       <r>   -9.4951    1.0000 </r>
       <r>   -9.4951    1.0000 </r>
       <r>   -9.0381    1.0000 </r>
       <r>   -8.7938    1.0000 </r>
       <r>   -8.7612    1.0000 </r>
       <r>   -8.7588    1.0000 </r>
       <r>   -7.9450    1.0000 </r>
       <r>   -7.9446    1.0000 </r>
       <r>   -7.6710    1.0000 </r>
       <r>   -6.6227    1.0000 </r>
       <r>   -6.3780    1.0000 </r>
       <r>   -6.3773    1.0000 </r>
       <r>   -6.2163    1.0000 </r>
       <r>   -5.7649    1.0000 </r>
       <r>   -4.2990    1.0000 </r>
       <r>   -4.2989    1.0000 </r>
       <r>   -1.2830    0.0000 </r>
       <r>   -1.2828    0.0000 </r>
       <r>   -0.2381    0.0000 </r>
       <r>    0.7822    0.0000 </r>
       <r>    0.7877    0.0000 </r>
       <r>    0.8153    0.0000 </r>
       <r>    1.6062    0.0000 </r>
       <r>    1.9325    0.0000 </r>
       <r>    2.3340    0.0000 </r>
       <r>    2.8513    0.0000 </r>
      </set>
      <set comment="kpoint 6">
       <r>  -21.7748    1.0000 </r>
       <r>  -21.4026    1.0000 </r>
       <r>  -20.2972    1.0000 </r>
       <r>  -20.2971    1.0000 </r>
       <r>  -18.1581    1.0000 </r>
       <r>  -18.1580    1.0000 </r>
       <r>  -17.4813    1.0000 </r>
       <r>  -17.4813    1.0000 </r>
       <r>  -17.2288    1.0000 </r>
       <r>  -15.7456    1.0000 </r>
       <r>  -14.3221    1.0000 </r>
       <r>  -14.3221    1.0000 </r>
       <r>  -13.9510    1.0000 </r>
       <r>  -13.9509    1.0000 </r>
       <r>  -11.2586    1.0000 </r>
       <r>  -11.2585    1.0000 </r>
       <r>  -10.5972    1.0000 </r>
       <r>  -10.5972    1.0000 </r>
       <r>  -10.3278    1.0000 </r>
       <r>  -10.3278    1.0000 </r>
       <r>   -9.7876    1.0000 </r>
       <r>   -9.3483    1.0000 </r>
       <r>   -9.1439    1.0000 </r>
       <r>   -9.0903    1.0000 </r>
       <r>   -9.0902    1.0000 </r>
       <r>   -8.6462    1.0000 </r>
       <r>   -8.0610    1.0000 </r>
       <r>   -8.0610    1.0000 </r>
       <r>   -7.5384    1.0000 </r>
       <r>   -7.1687    1.0000 </r>
       <r>   -6.6645    1.0000 </r>
       <r>   -5.7469    1.0000 </r>
       <r>   -5.7469    1.0000 </r>
       <r>   -5.1980    1.0000 </r>
       <r>   -5.0472    1.0000 </r>
       <r>   -5.0472    1.0000 </r>
       <r>   -0.9702    0.0000 </r>
       <r>   -0.5850    0.0000 </r>
       <r>   -0.5848    0.0000 </r>
       <r>    0.1015    0.0000 </r>
       <r>    0.1017    0.0000 </r>
       <r>    1.1735    0.0000 </r>
       <r>    1.6817    0.0000 </r>
       <r>    1.9736    0.0000 </r>
       <r>    2.3049    0.0000 </r>
       <r>    2.4866    0.0000 </r>
      </set>
      <set comment="kpoint 7">
       <r>  -21.7748    1.0000 </r>
       <r>  -21.4026    1.0000 </r>
       <r>  -20.2972    1.0000 </r>
       <r>  -20.2972    1.0000 </r>
       <r>  -18.1581    1.0000 </r>
       <r>  -18.1580    1.0000 </r>
       <r>  -17.4813    1.0000 </r>
       <r>  -17.4813    1.0000 </r>
       <r>  -17.2288    1.0000 </r>
       <r>  -15.7456    1.0000 </r>
       <r>  -14.3221    1.0000 </r>
       <r>  -14.3221    1.0000 </r>
       <r>  -13.9510    1.0000 </r>
       <r>  -13.9509    1.0000 </r>
       <r>  -11.2585    1.0000 </r>
       <r>  -11.2585    1.0000 </r>
       <r>  -10.5973    1.0000 </r>
       <r>  -10.5971    1.0000 </r>
       <r>  -10.3278    1.0000 </r>
       <r>  -10.3278    1.0000 </r>
       <r>   -9.7875    1.0000 </r>
       <r>   -9.3483    1.0000 </r>
       <r>   -9.1440    1.0000 </r>
       <r>   -9.0903    1.0000 </r>
       <r>   -9.0900    1.0000 </r>
       <r>   -8.6462    1.0000 </r>
       <r>   -8.0612    1.0000 </r>
       <r>   -8.0610    1.0000 </r>
       <r>   -7.5384    1.0000 </r>
       <r>   -7.1687    1.0000 </r>
       <r>   -6.6645    1.0000 </r>
       <r>   -5.7469    1.0000 </r>
       <r>   -5.7468    1.0000 </r>
       <r>   -5.1980    1.0000 </r>
       <r>   -5.0472    1.0000 </r>
       <r>   -5.0472    1.0000 </r>
       <r>   -0.9701    0.0000 </r>
       <r>   -0.5851    0.0000 </r>
       <r>   -0.5848    0.0000 </r>
       <r>    0.1014    0.0000 </r>
       <r>    0.1018    0.0000 </r>
       <r>    1.1735    0.0000 </r>
       <r>    1.6817    0.0000 </r>
       <r>    1.9736    0.0000 </r>
       <r>    2.3049    0.0000 </r>
       <r>    2.4866    0.0000 </r>
      </set>
      <set comment="kpoint 8">
       <r>  -22.0952    1.0000 </r>
       <r>  -20.6109    1.0000 </r>
       <r>  -20.6108    1.0000 </r>
       <r>  -19.5193    1.0000 </r>
       <r>  -19.5193    1.0000 </r>
       <r>  -18.4549    1.0000 </r>
       <r>  -18.4548    1.0000 </r>
       <r>  -16.7786    1.0000 </r>
       <r>  -16.1617    1.0000 </r>
       <r>  -15.2403    1.0000 </r>
       <r>  -14.2549    1.0000 </r>
       <r>  -14.1585    1.0000 </r>
       <r>  -14.1585    1.0000 </r>
       <r>  -12.6046    1.0000 </r>
       <r>  -12.3071    1.0000 </r>
       <r>  -12.3070    1.0000 </r>
       <r>  -12.2711    1.0000 </r>
       <r>  -10.4864    1.0000 </r>
       <r>  -10.4863    1.0000 </r>
       <r>  -10.1681    1.0000 </r>
       <r>   -9.1765    1.0000 </r>
       <r>   -9.1765    1.0000 </r>
       <r>   -9.1237    1.0000 </r>
       <r>   -9.1236    1.0000 </r>
       <r>   -8.4260    1.0000 </r>
       <r>   -8.4258    1.0000 </r>
       <r>   -8.0746    1.0000 </r>
       <r>   -8.0745    1.0000 </r>
       <r>   -7.1908    1.0000 </r>
       <r>   -7.1907    1.0000 </r>
       <r>   -6.4086    1.0000 </r>
       <r>   -6.1323    1.0000 </r>
       <r>   -6.1043    1.0000 </r>
       <r>   -6.1036    1.0000 </r>
       <r>   -4.2578    1.0000 </r>
       <r>   -3.8994    1.0000 </r>
       <r>   -1.7106    0.0000 </r>
       <r>   -1.2653    0.0000 </r>
       <r>    0.2726    0.0000 </r>
       <r>    0.2729    0.0000 </r>
       <r>    0.7376    0.0000 </r>
       <r>    1.5326    0.0000 </r>
       <r>    1.8579    0.0000 </r>
       <r>    2.0113    0.0000 </r>
       <r>    2.0115    0.0000 </r>
       <r>    2.7776    0.0000 </r>
      </set>
      <set comment="kpoint 9">
       <r>  -22.0952    1.0000 </r>
       <r>  -20.6109    1.0000 </r>
       <r>  -20.6108    1.0000 </r>
       <r>  -19.5193    1.0000 </r>
       <r>  -19.5192    1.0000 </r>
       <r>  -18.4549    1.0000 </r>
       <r>  -18.4548    1.0000 </r>
       <r>  -16.7786    1.0000 </r>
       <r>  -16.1617    1.0000 </r>
       <r>  -15.2403    1.0000 </r>
       <r>  -14.2549    1.0000 </r>
       <r>  -14.1586    1.0000 </r>
       <r>  -14.1585    1.0000 </r>
       <r>  -12.6046    1.0000 </r>
       <r>  -12.3071    1.0000 </r>
       <r>  -12.3070    1.0000 </r>
       <r>  -12.2711    1.0000 </r>
       <r>  -10.4865    1.0000 </r>
       <r>  -10.4864    1.0000 </r>
       <r>  -10.1680    1.0000 </r>
       <r>   -9.1766    1.0000 </r>
       <r>   -9.1765    1.0000 </r>
       <r>   -9.1237    1.0000 </r>
       <r>   -9.1236    1.0000 </r>
       <r>   -8.4259    1.0000 </r>
       <r>   -8.4257    1.0000 </r>
       <r>   -8.0748    1.0000 </r>
       <r>   -8.0747    1.0000 </r>
       <r>   -7.1908    1.0000 </r>
       <r>   -7.1905    1.0000 </r>
       <r>   -6.4088    1.0000 </r>
       <r>   -6.1329    1.0000 </r>
       <r>   -6.1039    1.0000 </r>
       <r>   -6.1033    1.0000 </r>
       <r>   -4.2578    1.0000 </r>
       <r>   -3.8994    1.0000 </r>
       <r>   -1.7105    0.0000 </r>
       <r>   -1.2653    0.0000 </r>
       <r>    0.2723    0.0000 </r>
       <r>    0.2730    0.0000 </r>
       <r>    0.7378    0.0000 </r>
       <r>    1.5326    0.0000 </r>
       <r>    1.8580    0.0000 </r>
       <r>    2.0109    0.0000 </r>
       <r>    2.0117    0.0000 </r>
       <r>    2.7776    0.0000 </r>
      </set>
      <set comment="kpoint 10">
       <r>  -21.8815    1.0000 </r>
       <r>  -21.1377    1.0000 </r>
       <r>  -20.7687    1.0000 </r>
       <r>  -19.6743    1.0000 </r>
       <r>  -18.9580    1.0000 </r>
       <r>  -17.9165    1.0000 </r>
       <r>  -17.5935    1.0000 </r>
       <r>  -17.5729    1.0000 </r>
       <r>  -16.6711    1.0000 </r>
       <r>  -15.2537    1.0000 </r>
       <r>  -15.2500    1.0000 </r>
       <r>  -14.6348    1.0000 </r>
       <r>  -13.7272    1.0000 </r>
       <r>  -12.8210    1.0000 </r>
       <r>  -11.8986    1.0000 </r>
       <r>  -11.6826    1.0000 </r>
       <r>  -11.3888    1.0000 </r>
       <r>  -10.0394    1.0000 </r>
       <r>   -9.9165    1.0000 </r>
       <r>   -9.9141    1.0000 </r>
       <r>   -9.7108    1.0000 </r>
       <r>   -9.6302    1.0000 </r>
       <r>   -9.2825    1.0000 </r>
       <r>   -9.2645    1.0000 </r>
       <r>   -9.0374    1.0000 </r>
       <r>   -8.6066    1.0000 </r>
       <r>   -8.2588    1.0000 </r>
       <r>   -7.5788    1.0000 </r>
       <r>   -7.3541    1.0000 </r>
       <r>   -7.1429    1.0000 </r>
       <r>   -6.5700    1.0000 </r>
       <r>   -6.5442    1.0000 </r>
       <r>   -5.5814    1.0000 </r>
       <r>   -5.3854    1.0000 </r>
       <r>   -5.0741    1.0000 </r>
       <r>   -4.4328    1.0000 </r>
       <r>   -1.2967    0.0000 </r>
       <r>   -0.6854    0.0000 </r>
       <r>   -0.4250    0.0000 </r>
       <r>   -0.2985    0.0000 </r>
       <r>    1.0278    0.0000 </r>
       <r>    1.2243    0.0000 </r>
       <r>    1.8267    0.0000 </r>
       <r>    2.0447    0.0000 </r>
       <r>    2.1559    0.0000 </r>
       <r>    2.4021    0.0000 </r>
      </set>
      <set comment="kpoint 11">
       <r>  -21.8815    1.0000 </r>
       <r>  -21.1377    1.0000 </r>
       <r>  -20.7687    1.0000 </r>
       <r>  -19.6743    1.0000 </r>
       <r>  -18.9580    1.0000 </r>
       <r>  -17.9165    1.0000 </r>
       <r>  -17.5935    1.0000 </r>
       <r>  -17.5729    1.0000 </r>
       <r>  -16.6711    1.0000 </r>
       <r>  -15.2537    1.0000 </r>
       <r>  -15.2500    1.0000 </r>
       <r>  -14.6349    1.0000 </r>
       <r>  -13.7272    1.0000 </r>
       <r>  -12.8210    1.0000 </r>
       <r>  -11.8986    1.0000 </r>
       <r>  -11.6826    1.0000 </r>
       <r>  -11.3888    1.0000 </r>
       <r>  -10.0394    1.0000 </r>
       <r>   -9.9209    1.0000 </r>
       <r>   -9.9097    1.0000 </r>
       <r>   -9.7107    1.0000 </r>
       <r>   -9.6302    1.0000 </r>
       <r>   -9.2825    1.0000 </r>
       <r>   -9.2645    1.0000 </r>
       <r>   -9.0373    1.0000 </r>
       <r>   -8.6067    1.0000 </r>
       <r>   -8.2587    1.0000 </r>
       <r>   -7.5791    1.0000 </r>
       <r>   -7.3539    1.0000 </r>
       <r>   -7.1429    1.0000 </r>
       <r>   -6.5700    1.0000 </r>
       <r>   -6.5443    1.0000 </r>
       <r>   -5.5814    1.0000 </r>
       <r>   -5.3855    1.0000 </r>
       <r>   -5.0741    1.0000 </r>
       <r>   -4.4328    1.0000 </r>
       <r>   -1.2967    0.0000 </r>
       <r>   -0.6853    0.0000 </r>
       <r>   -0.4251    0.0000 </r>
       <r>   -0.2985    0.0000 </r>
       <r>    1.0278    0.0000 </r>
       <r>    1.2243    0.0000 </r>
       <r>    1.8267    0.0000 </r>
       <r>    2.0445    0.0000 </r>
       <r>    2.1559    0.0000 </r>
       <r>    2.4023    0.0000 </r>
      </set>
      <set comment="kpoint 12">
       <r>  -21.8815    1.0000 </r>
       <r>  -21.1377    1.0000 </r>
       <r>  -20.7687    1.0000 </r>
       <r>  -19.6743    1.0000 </r>
       <r>  -18.9580    1.0000 </r>
       <r>  -17.9165    1.0000 </r>
       <r>  -17.5935    1.0000 </r>
       <r>  -17.5729    1.0000 </r>
       <r>  -16.6711    1.0000 </r>
       <r>  -15.2537    1.0000 </r>
       <r>  -15.2500    1.0000 </r>
       <r>  -14.6348    1.0000 </r>
       <r>  -13.7272    1.0000 </r>
       <r>  -12.8210    1.0000 </r>
       <r>  -11.8986    1.0000 </r>
       <r>  -11.6826    1.0000 </r>
       <r>  -11.3888    1.0000 </r>
       <r>  -10.0394    1.0000 </r>
       <r>   -9.9209    1.0000 </r>
       <r>   -9.9097    1.0000 </r>
       <r>   -9.7107    1.0000 </r>
       <r>   -9.6303    1.0000 </r>
       <r>   -9.2825    1.0000 </r>
       <r>   -9.2644    1.0000 </r>
       <r>   -9.0373    1.0000 </r>
       <r>   -8.6066    1.0000 </r>
       <r>   -8.2588    1.0000 </r>
       <r>   -7.5791    1.0000 </r>
       <r>   -7.3538    1.0000 </r>
       <r>   -7.1429    1.0000 </r>
       <r>   -6.5674    1.0000 </r>
       <r>   -6.5470    1.0000 </r>
       <r>   -5.5814    1.0000 </r>
       <r>   -5.3854    1.0000 </r>
       <r>   -5.0741    1.0000 </r>
       <r>   -4.4328    1.0000 </r>
       <r>   -1.2967    0.0000 </r>
       <r>   -0.6854    0.0000 </r>
       <r>   -0.4251    0.0000 </r>
       <r>   -0.2986    0.0000 </r>
       <r>    1.0283    0.0000 </r>
       <r>    1.2239    0.0000 </r>
       <r>    1.8267    0.0000 </r>
       <r>    2.0445    0.0000 </r>
       <r>    2.1559    0.0000 </r>
       <r>    2.4024    0.0000 </r>
      </set>
      <set comment="kpoint 13">
       <r>  -21.5620    1.0000 </r>
       <r>  -21.5619    1.0000 </r>
       <r>  -20.8213    1.0000 </r>
       <r>  -19.7261    1.0000 </r>
       <r>  -18.3060    1.0000 </r>
       <r>  -18.3059    1.0000 </r>
       <r>  -17.3075    1.0000 </r>
       <r>  -17.3074    1.0000 </r>
       <r>  -16.9870    1.0000 </r>
       <r>  -15.9390    1.0000 </r>
       <r>  -15.0096    1.0000 </r>
       <r>  -15.0096    1.0000 </r>
       <r>  -13.2819    1.0000 </r>
       <r>  -13.2819    1.0000 </r>
       <r>  -11.3580    1.0000 </r>
       <r>  -10.9878    1.0000 </r>
       <r>  -10.9877    1.0000 </r>
       <r>  -10.5000    1.0000 </r>
       <r>  -10.4999    1.0000 </r>
       <r>   -9.9053    1.0000 </r>
       <r>   -9.6352    1.0000 </r>
       <r>   -9.5357    1.0000 </r>
       <r>   -9.5356    1.0000 </r>
       <r>   -9.3359    1.0000 </r>
       <r>   -8.6671    1.0000 </r>
       <r>   -8.4185    1.0000 </r>
       <r>   -8.1249    1.0000 </r>
       <r>   -8.1249    1.0000 </r>
       <r>   -7.4091    1.0000 </r>
       <r>   -7.0534    1.0000 </r>
       <r>   -7.0533    1.0000 </r>
       <r>   -5.8557    1.0000 </r>
       <r>   -5.8555    1.0000 </r>
       <r>   -5.0628    1.0000 </r>
       <r>   -5.0124    1.0000 </r>
       <r>   -5.0124    1.0000 </r>
       <r>   -1.0893    0.0000 </r>
       <r>   -0.8234    0.0000 </r>
       <r>   -0.8232    0.0000 </r>
       <r>    0.4101    0.0000 </r>
       <r>    0.4105    0.0000 </r>
       <r>    1.4640    0.0000 </r>
       <r>    1.4643    0.0000 </r>
       <r>    2.2671    0.0000 </r>
       <r>    2.2671    0.0000 </r>
       <r>    2.4852    0.0000 </r>
      </set>
      <set comment="kpoint 14">
       <r>  -21.5620    1.0000 </r>
       <r>  -21.5619    1.0000 </r>
       <r>  -20.8213    1.0000 </r>
       <r>  -19.7261    1.0000 </r>
       <r>  -18.3060    1.0000 </r>
       <r>  -18.3059    1.0000 </r>
       <r>  -17.3075    1.0000 </r>
       <r>  -17.3074    1.0000 </r>
       <r>  -16.9870    1.0000 </r>
       <r>  -15.9390    1.0000 </r>
       <r>  -15.0097    1.0000 </r>
       <r>  -15.0095    1.0000 </r>
       <r>  -13.2820    1.0000 </r>
       <r>  -13.2819    1.0000 </r>
       <r>  -11.3580    1.0000 </r>
       <r>  -10.9878    1.0000 </r>
       <r>  -10.9877    1.0000 </r>
       <r>  -10.5000    1.0000 </r>
       <r>  -10.4999    1.0000 </r>
       <r>   -9.9053    1.0000 </r>
       <r>   -9.6354    1.0000 </r>
       <r>   -9.5357    1.0000 </r>
       <r>   -9.5353    1.0000 </r>
       <r>   -9.3360    1.0000 </r>
       <r>   -8.6671    1.0000 </r>
       <r>   -8.4185    1.0000 </r>
       <r>   -8.1250    1.0000 </r>
       <r>   -8.1248    1.0000 </r>
       <r>   -7.4093    1.0000 </r>
       <r>   -7.0535    1.0000 </r>
       <r>   -7.0531    1.0000 </r>
       <r>   -5.8557    1.0000 </r>
       <r>   -5.8555    1.0000 </r>
       <r>   -5.0628    1.0000 </r>
       <r>   -5.0125    1.0000 </r>
       <r>   -5.0123    1.0000 </r>
       <r>   -1.0893    0.0000 </r>
       <r>   -0.8235    0.0000 </r>
       <r>   -0.8232    0.0000 </r>
       <r>    0.4100    0.0000 </r>
       <r>    0.4106    0.0000 </r>
       <r>    1.4641    0.0000 </r>
       <r>    1.4642    0.0000 </r>
       <r>    2.2671    0.0000 </r>
       <r>    2.2671    0.0000 </r>
       <r>    2.4869    0.0000 </r>
      </set>
      <set comment="kpoint 15">
       <r>  -21.6151    1.0000 </r>
       <r>  -21.2437    1.0000 </r>
       <r>  -21.2436    1.0000 </r>
       <r>  -19.0600    1.0000 </r>
       <r>  -19.0600    1.0000 </r>
       <r>  -18.3556    1.0000 </r>
       <r>  -17.0888    1.0000 </r>
       <r>  -17.0887    1.0000 </r>
       <r>  -16.7115    1.0000 </r>
       <r>  -15.6765    1.0000 </r>
       <r>  -15.6142    1.0000 </r>
       <r>  -15.6142    1.0000 </r>
       <r>  -12.9180    1.0000 </r>
       <r>  -12.2633    1.0000 </r>
       <r>  -12.2632    1.0000 </r>
       <r>  -11.3540    1.0000 </r>
       <r>  -10.5572    1.0000 </r>
       <r>  -10.5493    1.0000 </r>
       <r>  -10.5492    1.0000 </r>
       <r>   -9.8196    1.0000 </r>
       <r>   -9.8195    1.0000 </r>
       <r>   -9.5985    1.0000 </r>
       <r>   -9.1610    1.0000 </r>
       <r>   -9.1609    1.0000 </r>
       <r>   -8.8219    1.0000 </r>
       <r>   -8.8219    1.0000 </r>
       <r>   -7.8828    1.0000 </r>
       <r>   -7.6861    1.0000 </r>
       <r>   -7.6860    1.0000 </r>
       <r>   -7.0827    1.0000 </r>
       <r>   -6.6647    1.0000 </r>
       <r>   -6.6643    1.0000 </r>
       <r>   -5.8934    1.0000 </r>
       <r>   -5.0051    1.0000 </r>
       <r>   -5.0051    1.0000 </r>
       <r>   -4.6730    1.0000 </r>
       <r>   -1.2278    0.0000 </r>
       <r>   -1.0248    0.0000 </r>
       <r>   -1.0247    0.0000 </r>
       <r>    0.5279    0.0000 </r>
       <r>    1.3900    0.0000 </r>
       <r>    1.4821    0.0000 </r>
       <r>    1.4833    0.0000 </r>
       <r>    1.9001    0.0000 </r>
       <r>    1.9006    0.0000 </r>
       <r>    2.1939    0.0000 </r>
      </set>
      <set comment="kpoint 16">
       <r>  -21.6151    1.0000 </r>
       <r>  -21.2437    1.0000 </r>
       <r>  -21.2436    1.0000 </r>
       <r>  -19.0600    1.0000 </r>
       <r>  -19.0599    1.0000 </r>
       <r>  -18.3556    1.0000 </r>
       <r>  -17.0888    1.0000 </r>
       <r>  -17.0887    1.0000 </r>
       <r>  -16.7115    1.0000 </r>
       <r>  -15.6765    1.0000 </r>
       <r>  -15.6143    1.0000 </r>
       <r>  -15.6142    1.0000 </r>
       <r>  -12.9180    1.0000 </r>
       <r>  -12.2633    1.0000 </r>
       <r>  -12.2632    1.0000 </r>
       <r>  -11.3540    1.0000 </r>
       <r>  -10.5572    1.0000 </r>
       <r>  -10.5494    1.0000 </r>
       <r>  -10.5492    1.0000 </r>
       <r>   -9.8195    1.0000 </r>
       <r>   -9.8195    1.0000 </r>
       <r>   -9.5986    1.0000 </r>
       <r>   -9.1609    1.0000 </r>
       <r>   -9.1608    1.0000 </r>
       <r>   -8.8220    1.0000 </r>
       <r>   -8.8219    1.0000 </r>
       <r>   -7.8828    1.0000 </r>
       <r>   -7.6862    1.0000 </r>
       <r>   -7.6861    1.0000 </r>
       <r>   -7.0824    1.0000 </r>
       <r>   -6.6647    1.0000 </r>
       <r>   -6.6645    1.0000 </r>
       <r>   -5.8933    1.0000 </r>
       <r>   -5.0051    1.0000 </r>
       <r>   -5.0050    1.0000 </r>
       <r>   -4.6730    1.0000 </r>
       <r>   -1.2278    0.0000 </r>
       <r>   -1.0249    0.0000 </r>
       <r>   -1.0246    0.0000 </r>
       <r>    0.5279    0.0000 </r>
       <r>    1.3917    0.0000 </r>
       <r>    1.4812    0.0000 </r>
       <r>    1.4823    0.0000 </r>
       <r>    1.9001    0.0000 </r>
       <r>    1.9009    0.0000 </r>
       <r>    2.1939    0.0000 </r>
      </set>
     </set>
    </set>
   </array>
  </eigenvalues>
  <separator name="orbital magnetization" >
   <v name="MAGDIPOLOUT">      0.00000000      0.00000000      0.00000000</v>
  </separator>
  <dos>
   <i name="efermi">     -2.75530677 </i>
   <total>
    <array>
     <dimension dim="1">gridpoints</dimension>
     <dimension dim="2">spin</dimension>
     <field>energy</field>
     <field>total</field>
     <field>integrated</field>
     <set>
      <set comment="spin 1">
       <r>   -23.5112     0.0000     0.0000 </r>
       <r>   -23.4191     0.0000     0.0000 </r>
       <r>   -23.3270     0.0000     0.0000 </r>
       <r>   -23.2350     0.0000     0.0000 </r>
       <r>   -23.1429     0.0000     0.0000 </r>
       <r>   -23.0509     0.0000     0.0000 </r>
       <r>   -22.9588     0.0000     0.0000 </r>
       <r>   -22.8667     0.0000     0.0000 </r>
       <r>   -22.7747     0.0000     0.0000 </r>
       <r>   -22.6826     0.0000     0.0000 </r>
       <r>   -22.5906     0.0000     0.0000 </r>
       <r>   -22.4985     0.0000     0.0000 </r>
       <r>   -22.4064     0.0000     0.0000 </r>
       <r>   -22.3144     0.0236     0.0022 </r>
       <r>   -22.2223     1.1016     0.1036 </r>
       <r>   -22.1303     2.3657     0.3214 </r>
       <r>   -22.0382     3.5650     0.6496 </r>
       <r>   -21.9461     1.5381     0.7912 </r>
       <r>   -21.8541     4.0171     1.1610 </r>
       <r>   -21.7620     2.8374     1.4222 </r>
       <r>   -21.6700     1.1185     1.5252 </r>
       <r>   -21.5779     3.8401     1.8787 </r>
       <r>   -21.4859     3.9186     2.2394 </r>
       <r>   -21.3938     1.6511     2.3914 </r>
       <r>   -21.3017     1.3295     2.5138 </r>
       <r>   -21.2097     4.2747     2.9073 </r>
       <r>   -21.1176     4.5905     3.3300 </r>
       <r>   -21.0256     1.5174     3.4696 </r>
       <r>   -20.9335     1.1202     3.5728 </r>
       <r>   -20.8414     2.3790     3.7918 </r>
       <r>   -20.7494     5.5264     4.3005 </r>
       <r>   -20.6573     2.1105     4.4948 </r>
       <r>   -20.5653     4.2981     4.8905 </r>
       <r>   -20.4732     0.5247     4.9388 </r>
       <r>   -20.3811     0.5261     4.9872 </r>
       <r>   -20.2891     5.1716     5.4633 </r>
       <r>   -20.1970     4.6654     5.8928 </r>
       <r>   -20.1050     2.9041     6.1602 </r>
       <r>   -20.0129     1.1389     6.2650 </r>
       <r>   -19.9208     4.0194     6.6351 </r>
       <r>   -19.8288     0.2005     6.6535 </r>
       <r>   -19.7367     1.3145     6.7745 </r>
       <r>   -19.6447     7.6692     7.4805 </r>
       <r>   -19.5526     2.5702     7.7172 </r>
       <r>   -19.4605     4.1454     8.0988 </r>
       <r>   -19.3685     0.2642     8.1231 </r>
       <r>   -19.2764     1.8318     8.2917 </r>
       <r>   -19.1844     3.4100     8.6057 </r>
       <r>   -19.0923     1.0305     8.7005 </r>
       <r>   -19.0002     4.7456     9.1374 </r>
       <r>   -18.9082     5.7805     9.6696 </r>
       <r>   -18.8161     2.0275     9.8562 </r>
       <r>   -18.7241     4.1034    10.2340 </r>
       <r>   -18.6320     1.0043    10.3264 </r>
       <r>   -18.5399     0.0441    10.3305 </r>
       <r>   -18.4479     3.0446    10.6108 </r>
       <r>   -18.3558     3.9636    10.9756 </r>
       <r>   -18.2638     5.6255    11.4935 </r>
       <r>   -18.1717     2.4883    11.7226 </r>
       <r>   -18.0796     4.2309    12.1121 </r>
       <r>   -17.9876     1.9601    12.2925 </r>
       <r>   -17.8955     3.7766    12.6402 </r>
       <r>   -17.8035     1.4660    12.7752 </r>
       <r>   -17.7114     0.0062    12.7757 </r>
       <r>   -17.6193     1.7346    12.9354 </r>
       <r>   -17.5273     8.7305    13.7392 </r>
       <r>   -17.4352     4.9816    14.1978 </r>
       <r>   -17.3432     1.3444    14.3215 </r>
       <r>   -17.2511     4.8956    14.7722 </r>
       <r>   -17.1591     2.3127    14.9851 </r>
       <r>   -17.0670     3.8605    15.3405 </r>
       <r>   -16.9749     3.0809    15.6241 </r>
       <r>   -16.8829     0.9794    15.7143 </r>
       <r>   -16.7908     1.5272    15.8549 </r>
       <r>   -16.6988     8.7744    16.6627 </r>
       <r>   -16.6067     5.4729    17.1665 </r>
       <r>   -16.5146     0.1865    17.1837 </r>
       <r>   -16.4226     0.0000    17.1837 </r>
       <r>   -16.3305     0.0000    17.1837 </r>
       <r>   -16.2385     0.0397    17.1873 </r>
       <r>   -16.1464     1.7352    17.3471 </r>
       <r>   -16.0543     1.1347    17.4515 </r>
       <r>   -15.9623     4.8144    17.8947 </r>
       <r>   -15.8702     2.8476    18.1569 </r>
       <r>   -15.7782     0.5497    18.2075 </r>
       <r>   -15.6861     3.2140    18.5034 </r>
       <r>   -15.5940     5.4094    19.0014 </r>
       <r>   -15.5020     1.5330    19.1425 </r>
       <r>   -15.4099     0.0485    19.1470 </r>
       <r>   -15.3179     1.6373    19.2977 </r>
       <r>   -15.2258    10.0267    20.2207 </r>
       <r>   -15.1337     3.3593    20.5300 </r>
       <r>   -15.0417     0.9766    20.6199 </r>
       <r>   -14.9496     4.9163    21.0725 </r>
       <r>   -14.8576     4.4507    21.4822 </r>
       <r>   -14.7655     1.2672    21.5989 </r>
       <r>   -14.6734     2.8350    21.8599 </r>
       <r>   -14.5814     8.5593    22.6478 </r>
       <r>   -14.4893     0.9432    22.7347 </r>
       <r>   -14.3973     0.0896    22.7429 </r>
       <r>   -14.3052     3.7536    23.0885 </r>
       <r>   -14.2131     4.1423    23.4698 </r>
       <r>   -14.1211     4.5452    23.8882 </r>
       <r>   -14.0290     0.8427    23.9658 </r>
       <r>   -13.9370     3.4076    24.2795 </r>
       <r>   -13.8449     1.8361    24.4485 </r>
       <r>   -13.7528     1.2518    24.5638 </r>
       <r>   -13.6608     4.0109    24.9330 </r>
       <r>   -13.5687     2.3014    25.1449 </r>
       <r>   -13.4767     4.3539    25.5457 </r>
       <r>   -13.3846     1.3977    25.6744 </r>
       <r>   -13.2926     2.4335    25.8984 </r>
       <r>   -13.2005     3.7020    26.2392 </r>
       <r>   -13.1084     0.0622    26.2449 </r>
       <r>   -13.0164     0.7509    26.3141 </r>
       <r>   -12.9243     9.5449    27.1928 </r>
       <r>   -12.8323     4.9808    27.6513 </r>
       <r>   -12.7402     3.2856    27.9538 </r>
       <r>   -12.6481     0.3487    27.9859 </r>
       <r>   -12.5561     2.1441    28.1832 </r>
       <r>   -12.4640     0.2415    28.2055 </r>
       <r>   -12.3720     1.5829    28.3512 </r>
       <r>   -12.2799     7.9799    29.0858 </r>
       <r>   -12.1878     8.6836    29.8852 </r>
       <r>   -12.0958     2.9860    30.1601 </r>
       <r>   -12.0037     0.0420    30.1640 </r>
       <r>   -11.9117     1.8856    30.3376 </r>
       <r>   -11.8196     3.4043    30.6510 </r>
       <r>   -11.7275     3.6735    30.9891 </r>
       <r>   -11.6355     6.4909    31.5867 </r>
       <r>   -11.5434     0.4990    31.6326 </r>
       <r>   -11.4514     0.2232    31.6532 </r>
       <r>   -11.3593     6.4945    32.2511 </r>
       <r>   -11.2672     6.0320    32.8064 </r>
       <r>   -11.1752     3.3777    33.1173 </r>
       <r>   -11.0831     5.6014    33.6330 </r>
       <r>   -10.9911     4.6682    34.0627 </r>
       <r>   -10.8990     2.8334    34.3236 </r>
       <r>   -10.8069     0.0321    34.3265 </r>
       <r>   -10.7149     0.0023    34.3267 </r>
       <r>   -10.6228     1.4302    34.4584 </r>
       <r>   -10.5308    11.0824    35.4786 </r>
       <r>   -10.4387    10.7382    36.4672 </r>
       <r>   -10.3466     2.7532    36.7207 </r>
       <r>   -10.2546     5.9514    37.2685 </r>
       <r>   -10.1625     2.0403    37.4564 </r>
       <r>   -10.0705     4.2467    37.8473 </r>
       <r>    -9.9784     4.9980    38.3074 </r>
       <r>    -9.8863    10.8297    39.3044 </r>
       <r>    -9.7943    10.0398    40.2287 </r>
       <r>    -9.7022     6.1731    40.7970 </r>
       <r>    -9.6102     8.8823    41.6147 </r>
       <r>    -9.5181     8.7467    42.4199 </r>
       <r>    -9.4260     5.5479    42.9306 </r>
       <r>    -9.3340     3.7436    43.2753 </r>
       <r>    -9.2419    10.4702    44.2391 </r>
       <r>    -9.1499    11.8874    45.3335 </r>
       <r>    -9.0578    15.0020    46.7146 </r>
       <r>    -8.9658     6.7102    47.3323 </r>
       <r>    -8.8737     2.9031    47.5996 </r>
       <r>    -8.7816    12.7150    48.7701 </r>
       <r>    -8.6896     6.7382    49.3904 </r>
       <r>    -8.5975     7.3991    50.0716 </r>
       <r>    -8.5055     7.1608    50.7308 </r>
       <r>    -8.4134     8.0044    51.4677 </r>
       <r>    -8.3213     3.3106    51.7724 </r>
       <r>    -8.2293     4.0793    52.1480 </r>
       <r>    -8.1372     5.4668    52.6513 </r>
       <r>    -8.0452    13.9558    53.9360 </r>
       <r>    -7.9531     5.1258    54.4079 </r>
       <r>    -7.8610     5.0033    54.8685 </r>
       <r>    -7.7690     1.1250    54.9721 </r>
       <r>    -7.6769     8.5257    55.7569 </r>
       <r>    -7.5849     6.9450    56.3963 </r>
       <r>    -7.4928     5.1731    56.8725 </r>
       <r>    -7.4007     2.8771    57.1374 </r>
       <r>    -7.3087     7.3976    57.8184 </r>
       <r>    -7.2166     2.2073    58.0216 </r>
       <r>    -7.1246    10.1134    58.9526 </r>
       <r>    -7.0325     7.9169    59.6815 </r>
       <r>    -6.9404     3.3211    59.9872 </r>
       <r>    -6.8484     3.5913    60.3178 </r>
       <r>    -6.7563     0.1323    60.3300 </r>
       <r>    -6.6643     4.3167    60.7274 </r>
       <r>    -6.5722    10.5932    61.7026 </r>
       <r>    -6.4801     8.8147    62.5141 </r>
       <r>    -6.3881     4.1332    62.8946 </r>
       <r>    -6.2960     4.0016    63.2630 </r>
       <r>    -6.2040     1.7946    63.4282 </r>
       <r>    -6.1119     4.9856    63.8872 </r>
       <r>    -6.0198     4.7271    64.3223 </r>
       <r>    -5.9278     2.9073    64.5900 </r>
       <r>    -5.8357     7.9546    65.3223 </r>
       <r>    -5.7437     7.1527    65.9807 </r>
       <r>    -5.6516     3.4174    66.2953 </r>
       <r>    -5.5595     3.7888    66.6441 </r>
       <r>    -5.4675     1.4777    66.7802 </r>
       <r>    -5.3754     3.2028    67.0750 </r>
       <r>    -5.2834     2.0776    67.2663 </r>
       <r>    -5.1913     1.5217    67.4064 </r>
       <r>    -5.0992     3.2261    67.7034 </r>
       <r>    -5.0072    15.7139    69.1500 </r>
       <r>    -4.9151     6.0843    69.7101 </r>
       <r>    -4.8231     0.0455    69.7143 </r>
       <r>    -4.7310     0.1342    69.7266 </r>
       <r>    -4.6390     2.0799    69.9181 </r>
       <r>    -4.5469     0.4489    69.9594 </r>
       <r>    -4.4548     1.4170    70.0899 </r>
       <r>    -4.3628     3.9670    70.4551 </r>
       <r>    -4.2707     5.0751    70.9223 </r>
       <r>    -4.1787     2.8039    71.1804 </r>
       <r>    -4.0866     0.0353    71.1837 </r>
       <r>    -3.9945     0.0095    71.1845 </r>
       <r>    -3.9025     1.2275    71.2976 </r>
       <r>    -3.8104     1.4074    71.4271 </r>
       <r>    -3.7184     0.0158    71.4286 </r>
       <r>    -3.6263     0.0128    71.4298 </r>
       <r>    -3.5342     2.1944    71.6318 </r>
       <r>    -3.4422     3.0682    71.9142 </r>
       <r>    -3.3501     0.0450    71.9184 </r>
       <r>    -3.2581     0.0000    71.9184 </r>
       <r>    -3.1660     0.0000    71.9184 </r>
       <r>    -3.0739     0.0000    71.9184 </r>
       <r>    -2.9819     0.0000    71.9184 </r>
       <r>    -2.8898     0.0001    71.9184 </r>
       <r>    -2.7978     0.2037    71.9371 </r>
       <r>    -2.7057     1.4273    72.0685 </r>
       <r>    -2.6136     0.1424    72.0816 </r>
       <r>    -2.5216     0.0001    72.0816 </r>
       <r>    -2.4295     0.0000    72.0816 </r>
       <r>    -2.3375     0.0000    72.0816 </r>
       <r>    -2.2454     0.0000    72.0816 </r>
       <r>    -2.1533     0.0001    72.0816 </r>
       <r>    -2.0613     0.2913    72.1085 </r>
       <r>    -1.9692     4.1894    72.4941 </r>
       <r>    -1.8772     0.8389    72.5714 </r>
       <r>    -1.7851     0.0473    72.5757 </r>
       <r>    -1.6930     1.7883    72.7403 </r>
       <r>    -1.6010     0.8228    72.8161 </r>
       <r>    -1.5089     0.0026    72.8163 </r>
       <r>    -1.4169     0.0022    72.8165 </r>
       <r>    -1.3248     1.8892    72.9904 </r>
       <r>    -1.2327    11.5130    74.0503 </r>
       <r>    -1.1407     2.7352    74.3021 </r>
       <r>    -1.0486     3.5132    74.6255 </r>
       <r>    -0.9566     5.8745    75.1663 </r>
       <r>    -0.8645     1.7207    75.3248 </r>
       <r>    -0.7725     4.3119    75.7217 </r>
       <r>    -0.6804     3.3375    76.0290 </r>
       <r>    -0.5883     4.7858    76.4695 </r>
       <r>    -0.4963     2.9650    76.7425 </r>
       <r>    -0.4042     3.7655    77.0891 </r>
       <r>    -0.3122     3.3769    77.4000 </r>
       <r>    -0.2201     5.1923    77.8780 </r>
       <r>    -0.1280     0.8793    77.9590 </r>
       <r>    -0.0360     0.0027    77.9592 </r>
       <r>     0.0561     0.5264    78.0077 </r>
       <r>     0.1481     4.2947    78.4030 </r>
       <r>     0.2402     1.4502    78.5365 </r>
       <r>     0.3323     4.1966    78.9229 </r>
       <r>     0.4243     3.6596    79.2598 </r>
       <r>     0.5164     3.0660    79.5420 </r>
       <r>     0.6084     3.6472    79.8778 </r>
       <r>     0.7005     1.3158    79.9989 </r>
       <r>     0.7926     5.8905    80.5412 </r>
       <r>     0.8846     5.8639    81.0810 </r>
       <r>     0.9767     1.4998    81.2191 </r>
       <r>     1.0687     4.2768    81.6128 </r>
       <r>     1.1608     1.8084    81.7793 </r>
       <r>     1.2529     5.7087    82.3048 </r>
       <r>     1.3449     2.0855    82.4968 </r>
       <r>     1.4370     6.8719    83.1295 </r>
       <r>     1.5290    14.1674    84.4337 </r>
       <r>     1.6211     4.4193    84.8405 </r>
       <r>     1.7132     4.6776    85.2712 </r>
       <r>     1.8052     3.3455    85.5791 </r>
       <r>     1.8973     8.8117    86.3903 </r>
       <r>     1.9893     8.8590    87.2059 </r>
       <r>     2.0814     9.2158    88.0543 </r>
       <r>     2.1735     6.9551    88.6946 </r>
       <r>     2.2655     6.9102    89.3307 </r>
       <r>     2.3576     7.3813    90.0103 </r>
       <r>     2.4496     5.9725    90.5601 </r>
       <r>     2.5417     4.7069    90.9934 </r>
       <r>     2.6338     1.7354    91.1532 </r>
       <r>     2.7258     1.8331    91.3219 </r>
       <r>     2.8179     4.6844    91.7532 </r>
       <r>     2.9099     2.5513    91.9880 </r>
       <r>     3.0020     0.1300    92.0000 </r>
       <r>     3.0941     0.0000    92.0000 </r>
       <r>     3.1861     0.0000    92.0000 </r>
       <r>     3.2782     0.0000    92.0000 </r>
       <r>     3.3702     0.0000    92.0000 </r>
       <r>     3.4623     0.0000    92.0000 </r>
       <r>     3.5543     0.0000    92.0000 </r>
       <r>     3.6464     0.0000    92.0000 </r>
       <r>     3.7385     0.0000    92.0000 </r>
       <r>     3.8305     0.0000    92.0000 </r>
       <r>     3.9226     0.0000    92.0000 </r>
       <r>     4.0146     0.0000    92.0000 </r>
       <r>     4.1067     0.0000    92.0000 </r>
      </set>
     </set>
    </array>
   </total>
  </dos>
 </calculation>
 <structure name="finalpos" >
  <crystal>
   <varray name="basis" >
    <v>       7.40170591       0.00000000       0.00000000 </v>
    <v>      -3.70085295       6.41006527       0.00000000 </v>
    <v>       0.00000000       0.00000000      20.00000000 </v>
   </varray>
   <i name="volume">    948.90835877 </i>
   <varray name="rec_basis" >
    <v>       0.13510399       0.07800233       0.00000000 </v>
    <v>       0.00000000       0.15600465       0.00000000 </v>
    <v>       0.00000000       0.00000000       0.05000000 </v>
   </varray>
  </crystal>
  <varray name="positions" >
   <v>       0.00000000       0.00000000       0.50050000 </v>
   <v>       0.33333333       0.00000000       0.49950000 </v>
   <v>       0.66666667       0.00000000       0.50000000 </v>
   <v>       0.00000000       0.33333333       0.50000000 </v>
   <v>       0.33333333       0.33333333       0.50000000 </v>
   <v>       0.66666667       0.33333333       0.50000000 </v>
   <v>       0.00000000       0.66666667       0.50000000 </v>
   <v>       0.33333333       0.66666667       0.50000000 </v>
   <v>       0.66666667       0.66666667       0.50000000 </v>
   <v>       0.22222222       0.11111111       0.50000000 </v>
   <v>       0.55555556       0.11111111       0.50000000 </v>
   <v>       0.88888889       0.11111111       0.50000000 </v>
   <v>       0.22222222       0.44444444       0.50000000 </v>
   <v>       0.55555556       0.44444444       0.50000000 </v>
   <v>       0.88888889       0.44444444       0.50000000 </v>
   <v>       0.22222222       0.77777778       0.50000000 </v>
   <v>       0.55555556       0.77777778       0.50000000 </v>
   <v>       0.88888889       0.77777778       0.50000000 </v>
  </varray>
 </structure>
</modeling>
