<?xml version="1.0" encoding="ISO-8859-1"?>
<modeling>
 <generator>
  <i name="program" type="string">vasp </i>
  <i name="version" type="string">6.4.1  </i>
  <i name="subversion" type="string">05Apr23 (build Feb 12 2025 00:37:39) complex                          parallel </i>
  <i name="platform" type="string">LinuxIFC </i>
  <i name="date" type="string">2025 02 14 </i>
  <i name="time" type="string">05:57:07 </i>
 </generator>
 <incar>
  <i type="string" name="SYSTEM">SCF</i>
  <i type="int" name="ISTART">     0</i>
  <i type="int" name="ICHARG">     2</i>
  <i type="int" name="NELM">    60</i>
  <i type="int" name="NELMIN">     6</i>
  <i name="EDIFF">      0.00000100</i>
  <i name="EDIFFG">     -0.00000100</i>
  <i name="ENCUT">    600.00000000</i>
  <i type="string" name="LREAL">Auto</i>
  <i type="int" name="ISMEAR">     0</i>
  <i name="SIGMA">      0.05000000</i>
  <i type="logical" name="LWAVE"> F  </i>
  <i type="logical" name="LCHARG"> F  </i>
 </incar>
 <primitive_cell>
  <structure name="primitive_cell" >
   <crystal>
    <varray name="basis" >
     <v>       7.40170591       0.00000000       0.00000000 </v>
     <v>      -3.70085295       6.41006527       0.00000000 </v>
     <v>       0.00000000       0.00000000      20.00000000 </v>
    </varray>
    <i name="volume">    948.90835877 </i>
    <varray name="rec_basis" >
     <v>       0.13510399       0.07800233       0.00000000 </v>
     <v>       0.00000000       0.15600465       0.00000000 </v>
     <v>       0.00000000       0.00000000       0.05000000 </v>
    </varray>
   </crystal>
   <varray name="positions" >
    <v>       0.00000000       0.00000000       0.49950000 </v>
    <v>       0.33333333       0.00000000       0.50000000 </v>
    <v>       0.66666667       0.00000000       0.50000000 </v>
    <v>       1.00000000       0.33333333       0.50000000 </v>
    <v>       0.33333333       0.33333333       0.50000000 </v>
    <v>       0.66666667       0.33333333       0.50000000 </v>
    <v>       1.00000000       0.66666667       0.50000000 </v>
    <v>       0.33333333       0.66666667       0.50000000 </v>
    <v>       0.66666667       0.66666667       0.50000000 </v>
    <v>       0.22222222       0.11111111       0.49950000 </v>
    <v>       0.55555556       0.11111111       0.50000000 </v>
    <v>       0.88888889       0.11111111       0.50000000 </v>
    <v>       0.22222222       0.44444444       0.50000000 </v>
    <v>       0.55555556       0.44444444       0.50000000 </v>
    <v>       0.88888889       0.44444444       0.50000000 </v>
    <v>       0.22222222       0.77777778       0.50000000 </v>
    <v>       0.55555556       0.77777778       0.50000000 </v>
    <v>       0.88888889       0.77777778       0.50000000 </v>
   </varray>
  </structure>
  <varray name="primitive_index" >
   <v type="int" >        1 </v>
   <v type="int" >        2 </v>
   <v type="int" >        3 </v>
   <v type="int" >        4 </v>
   <v type="int" >        5 </v>
   <v type="int" >        6 </v>
   <v type="int" >        7 </v>
   <v type="int" >        8 </v>
   <v type="int" >        9 </v>
   <v type="int" >       10 </v>
   <v type="int" >       11 </v>
   <v type="int" >       12 </v>
   <v type="int" >       13 </v>
   <v type="int" >       14 </v>
   <v type="int" >       15 </v>
   <v type="int" >       16 </v>
   <v type="int" >       17 </v>
   <v type="int" >       18 </v>
  </varray>
 </primitive_cell>
 <kpoints>
  <generation param="Gamma">
   <v type="int" name="divisions">       7        7        1 </v>
   <v name="usershift">      0.00000000       0.00000000       0.00000000 </v>
   <v name="genvec1">      0.14285714       0.00000000       0.00000000 </v>
   <v name="genvec2">      0.00000000       0.14285714       0.00000000 </v>
   <v name="genvec3">      0.00000000       0.00000000       1.00000000 </v>
   <v name="shift">      0.00000000       0.00000000       0.00000000 </v>
  </generation>
  <varray name="kpointlist" >
   <v>       0.00000000       0.00000000       0.00000000 </v>
   <v>       0.14285714       0.00000000       0.00000000 </v>
   <v>       0.00000000       0.14285714       0.00000000 </v>
   <v>       0.28571429       0.00000000       0.00000000 </v>
   <v>       0.00000000       0.28571429       0.00000000 </v>
   <v>       0.42857143       0.00000000       0.00000000 </v>
   <v>       0.00000000       0.42857143       0.00000000 </v>
   <v>       0.14285714       0.14285714       0.00000000 </v>
   <v>      -0.14285714       0.28571429       0.00000000 </v>
   <v>       0.28571429       0.14285714       0.00000000 </v>
   <v>      -0.14285714       0.42857143       0.00000000 </v>
   <v>      -0.42857143       0.28571429       0.00000000 </v>
   <v>       0.42857143       0.14285714       0.00000000 </v>
   <v>      -0.14285714      -0.42857143       0.00000000 </v>
   <v>       0.28571429       0.28571429       0.00000000 </v>
   <v>      -0.28571429      -0.42857143       0.00000000 </v>
  </varray>
  <varray name="weights" >
   <v>       0.02040816 </v>
   <v>       0.04081633 </v>
   <v>       0.08163265 </v>
   <v>       0.04081633 </v>
   <v>       0.08163265 </v>
   <v>       0.04081633 </v>
   <v>       0.08163265 </v>
   <v>       0.08163265 </v>
   <v>       0.04081633 </v>
   <v>       0.08163265 </v>
   <v>       0.08163265 </v>
   <v>       0.08163265 </v>
   <v>       0.04081633 </v>
   <v>       0.08163265 </v>
   <v>       0.08163265 </v>
   <v>       0.04081633 </v>
  </varray>
 </kpoints>
 <parameters>
  <separator name="general" >
   <i type="string" name="SYSTEM">SCF</i>
   <i type="logical" name="LCOMPAT"> F  </i>
  </separator>
  <separator name="electronic" >
   <i type="string" name="PREC">normal</i>
   <i name="ENMAX">    600.00000000</i>
   <i name="ENAUG">    644.87300000</i>
   <i name="EDIFF">      0.00000100</i>
   <i type="int" name="IALGO">    38</i>
   <i type="int" name="IWAVPR">    10</i>
   <i type="int" name="NBANDS">    46</i>
   <i type="int" name="NBANDSLOW">    -1</i>
   <i type="int" name="NBANDSHIGH">    -1</i>
   <i name="NELECT">     72.00000000</i>
   <i type="int" name="TURBO">     0</i>
   <i type="int" name="IRESTART">     0</i>
   <i type="int" name="NREBOOT">     0</i>
   <i type="int" name="NMIN">     0</i>
   <i name="EREF">      0.00000000</i>
   <separator name="electronic smearing" >
    <i type="int" name="ISMEAR">     0</i>
    <i name="SIGMA">      0.05000000</i>
    <i name="KSPACING">      0.50000000</i>
    <i type="logical" name="KGAMMA"> T  </i>
    <i type="logical" name="KBLOWUP"> T  </i>
   </separator>
   <separator name="electronic projectors" >
    <i type="logical" name="LREAL"> T  </i>
    <v name="ROPT">     -0.00050000</v>
    <i type="int" name="LMAXPAW">  -100</i>
    <i type="int" name="LMAXMIX">     2</i>
    <i type="logical" name="NLSPLINE"> F  </i>
   </separator>
   <separator name="electronic startup" >
    <i type="int" name="ISTART">     0</i>
    <i type="int" name="ICHARG">     2</i>
    <i type="int" name="INIWAV">     1</i>
   </separator>
   <separator name="electronic spin" >
    <i type="int" name="ISPIN">     1</i>
    <i type="logical" name="LNONCOLLINEAR"> F  </i>
    <v name="MAGMOM">      1.00000000      1.00000000      1.00000000      1.00000000      1.00000000      1.00000000      1.00000000      1.00000000      1.00000000      1.00000000      1.00000000      1.00000000      1.00000000      1.00000000      1.00000000      1.00000000      1.00000000      1.00000000</v>
    <i name="NUPDOWN">     -1.00000000</i>
    <i type="logical" name="LSORBIT"> F  </i>
    <v name="SAXIS">      0.00000000      0.00000000      1.00000000</v>
    <i type="logical" name="LSPIRAL"> F  </i>
    <v name="QSPIRAL">      0.00000000      0.00000000      0.00000000</v>
    <i type="logical" name="LZEROZ"> F  </i>
   </separator>
   <separator name="electronic exchange-correlation" >
    <i type="logical" name="LASPH"> F  </i>
    <i type="logical" name="LMETAGGA"> F  </i>
   </separator>
   <separator name="electronic convergence" >
    <i type="int" name="NELM">    60</i>
    <i type="int" name="NELMDL">    -5</i>
    <i type="int" name="NELMIN">     6</i>
    <i name="ENINI">    600.00000000</i>
    <separator name="electronic convergence detail" >
     <i type="logical" name="LDIAG"> T  </i>
     <i type="logical" name="LSUBROT"> F  </i>
     <i name="WEIMIN">      0.00000000</i>
     <i name="EBREAK">      0.00000000</i>
     <i name="DEPER">      0.30000000</i>
     <i type="int" name="NRMM">     4</i>
     <i name="TIME">      0.40000000</i>
    </separator>
   </separator>
   <separator name="electronic mixer" >
    <i name="AMIX">      0.40000000</i>
    <i name="BMIX">      1.00000000</i>
    <i name="AMIN">      0.10000000</i>
    <i name="AMIX_MAG">      1.60000000</i>
    <i name="BMIX_MAG">      1.00000000</i>
    <separator name="electronic mixer details" >
     <i type="int" name="IMIX">     4</i>
     <i type="logical" name="MIXFIRST"> F  </i>
     <i type="int" name="MAXMIX">   -45</i>
     <i name="WC">    100.00000000</i>
     <i type="int" name="INIMIX">     1</i>
     <i type="int" name="MIXPRE">     1</i>
     <i type="int" name="MREMOVE">     5</i>
    </separator>
   </separator>
   <separator name="electronic dipolcorrection" >
    <i type="logical" name="LDIPOL"> F  </i>
    <i type="logical" name="LMONO"> F  </i>
    <i type="int" name="IDIPOL">     0</i>
    <i name="EPSILON">      1.00000000</i>
    <v name="DIPOL">   -100.00000000   -100.00000000   -100.00000000</v>
    <i name="EFIELD">      0.00000000</i>
   </separator>
  </separator>
  <separator name="grids" >
   <i type="int" name="NGX">    48</i>
   <i type="int" name="NGY">    48</i>
   <i type="int" name="NGZ">   120</i>
   <i type="int" name="NGXF">    96</i>
   <i type="int" name="NGYF">    96</i>
   <i type="int" name="NGZF">   240</i>
   <i type="logical" name="ADDGRID"> F  </i>
  </separator>
  <separator name="ionic" >
   <i type="int" name="NSW">     0</i>
   <i type="int" name="IBRION">    -1</i>
   <i type="int" name="MDALGO">     0</i>
   <i type="int" name="ISIF">     2</i>
   <i name="PSTRESS">      0.00000000</i>
   <i name="EDIFFG">     -0.00000100</i>
   <i type="int" name="NFREE">     0</i>
   <i name="POTIM">      0.50000000</i>
   <i name="SMASS">     -3.00000000</i>
   <i name="SCALEE">      1.00000000</i>
  </separator>
  <separator name="ionic md" >
   <i name="TEBEG">      0.00010000</i>
   <i name="TEEND">      0.00010000</i>
   <i type="int" name="NBLOCK">     1</i>
   <i type="int" name="KBLOCK">     1</i>
   <i type="int" name="NPACO">   256</i>
   <i name="APACO">     10.00000000</i>
  </separator>
  <separator name="symmetry" >
   <i type="int" name="ISYM">     2</i>
   <i name="SYMPREC">      0.00001000</i>
  </separator>
  <separator name="dos" >
   <i type="int" name="LORBIT">     0</i>
   <v name="RWIGS">     -1.00000000</v>
   <i type="int" name="NEDOS">   301</i>
   <i name="EMIN">     10.00000000</i>
   <i name="EMAX">    -10.00000000</i>
   <i name="EFERMI">      0.00000000</i>
  </separator>
  <separator name="writing" >
   <i type="int" name="NWRITE">     2</i>
   <i type="logical" name="LWAVE"> F  </i>
   <i type="logical" name="LDOWNSAMPLE"> F  </i>
   <i type="logical" name="LCHARG"> F  </i>
   <i type="logical" name="LPARD"> F  </i>
   <i type="logical" name="LVTOT"> F  </i>
   <i type="logical" name="LVHAR"> F  </i>
   <i type="logical" name="LELF"> F  </i>
   <i type="logical" name="LOPTICS"> F  </i>
   <v name="STM">      0.00000000      0.00000000      0.00000000      0.00000000      0.00000000      0.00000000      0.00000000</v>
  </separator>
  <separator name="performance" >
   <i type="int" name="NPAR">     2</i>
   <i type="int" name="NSIM">     4</i>
   <i type="int" name="NBLK">    -1</i>
   <i type="logical" name="LPLANE"> T  </i>
   <i type="logical" name="LSCALAPACK"> T  </i>
   <i type="logical" name="LSCAAWARE"> F  </i>
   <i type="logical" name="LSCALU"> F  </i>
   <i type="logical" name="LASYNC"> F  </i>
   <i type="logical" name="LORBITALREAL"> F  </i>
  </separator>
  <separator name="miscellaneous" >
   <i type="int" name="IDIOT">     3</i>
   <i type="int" name="PHON_NSTRUCT">    -1</i>
   <i type="logical" name="LMUSIC"> F  </i>
   <v name="POMASS">     12.01100000</v>
   <v name="DARWINR">      0.00000000</v>
   <v name="DARWINV">      1.00000000</v>
   <i type="logical" name="LCORR"> T  </i>
  </separator>
  <i type="logical" name="GGA_COMPAT"> T  </i>
  <i type="logical" name="LBERRY"> F  </i>
  <i type="int" name="ICORELEVEL">     0</i>
  <i type="logical" name="LDAU"> F  </i>
  <i type="int" name="I_CONSTRAINED_M">     0</i>
  <separator name="electronic exchange-correlation" >
   <i type="string" name="GGA">--</i>
   <i type="int" name="VOSKOWN">     0</i>
   <i type="logical" name="LHFCALC"> F  </i>
   <i type="string" name="PRECFOCK"></i>
   <i type="logical" name="LSYMGRAD"> F  </i>
   <i type="logical" name="LHFONE"> F  </i>
   <i type="logical" name="LRHFCALC"> F  </i>
   <i type="logical" name="LTHOMAS"> F  </i>
   <i type="logical" name="LMODELHF"> F  </i>
   <i type="logical" name="LFOCKACE"> F  </i>
   <i name="ENCUT4O">     -1.00000000</i>
   <i type="int" name="EXXOEP">     0</i>
   <i type="int" name="FOURORBIT">     0</i>
   <i name="AEXX">      0.00000000</i>
   <i name="HFALPHA">      0.00000000</i>
   <i name="MCALPHA">      0.00000000</i>
   <i name="ALDAX">      1.00000000</i>
   <i name="AGGAX">      1.00000000</i>
   <i name="ALDAC">      1.00000000</i>
   <i name="AGGAC">      1.00000000</i>
   <i type="int" name="NKREDX">     1</i>
   <i type="int" name="NKREDY">     1</i>
   <i type="int" name="NKREDZ">     1</i>
   <i type="logical" name="SHIFTRED"> F  </i>
   <i type="logical" name="ODDONLY"> F  </i>
   <i type="logical" name="EVENONLY"> F  </i>
   <i type="int" name="LMAXFOCK">     0</i>
   <i type="int" name="NMAXFOCKAE">     0</i>
   <i type="logical" name="LFOCKAEDFT"> F  </i>
   <i name="HFSCREEN">      0.00000000</i>
   <i name="HFSCREENC">      0.00000000</i>
   <i type="int" name="NBANDSGWLOW">     0</i>
  </separator>
  <separator name="vdW DFT" >
   <i type="logical" name="LUSE_VDW"> F  </i>
   <i type="int" name="IVDW_NL">     1</i>
   <i type="logical" name="LSPIN_VDW"> F  </i>
   <i name="Zab_VDW">     -0.84910000</i>
   <i name="PARAM1">      0.12340000</i>
   <i name="PARAM2">      1.00000000</i>
   <i name="PARAM3">      0.00000000</i>
  </separator>
  <separator name="model GW" >
   <i type="int" name="MODEL_GW">     0</i>
   <i name="MODEL_EPS0">     31.63027863</i>
   <i name="MODEL_ALPHA">      1.00000000</i>
  </separator>
  <separator name="linear response parameters" >
   <i type="logical" name="LEPSILON"> F  </i>
   <i type="logical" name="LRPA"> F  </i>
   <i type="logical" name="LNABLA"> F  </i>
   <i type="logical" name="LVEL"> F  </i>
   <i name="CSHIFT">      0.10000000</i>
   <i name="OMEGAMAX">     -1.00000000</i>
   <i name="DEG_THRESHOLD">      0.00200000</i>
   <i name="RTIME">     -0.10000000</i>
   <i name="WPLASMAI">      0.00000000</i>
   <v name="DFIELD">      0.00000000      0.00000000      0.00000000</v>
   <v name="WPLASMA">      0.00000000      0.00000000      0.00000000      0.00000000      0.00000000      0.00000000      0.00000000      0.00000000      0.00000000</v>
  </separator>
  <separator name="orbital magnetization" >
   <i type="logical" name="NUCIND"> F  </i>
   <v name="MAGPOS">      0.00000000      0.00000000      0.00000000</v>
   <i type="logical" name="LNICSALL"> T  </i>
   <i type="logical" name="ORBITALMAG"> F  </i>
   <i type="logical" name="LMAGBLOCH"> F  </i>
   <i type="logical" name="LCHIMAG"> F  </i>
   <i type="logical" name="LGAUGE"> T  </i>
   <i type="int" name="MAGATOM">     0</i>
   <v name="MAGDIPOL">      0.00000000      0.00000000      0.00000000</v>
   <v name="AVECCONST">      0.00000000      0.00000000      0.00000000</v>
  </separator>
  <separator name="response functions" >
   <i type="logical" name="LALL_IN_ONE"> F  </i>
   <i type="int" name="IALL_IN_ONE">    -1</i>
   <i type="int" name="NBANDS_WAVE">    -1</i>
   <i type="logical" name="LFINITE_TEMPERATURE"> F  </i>
   <i type="logical" name="LADDER"> F  </i>
   <i type="logical" name="LRPAFORCE"> F  </i>
   <i type="logical" name="LFXC"> F  </i>
   <i type="logical" name="LHARTREE"> T  </i>
   <i type="int" name="IBSE">     0</i>
   <v type="int" name="KPOINT">    -1     0     0     0</v>
   <i type="logical" name="LTCTC"> F  </i>
   <i type="logical" name="LTCTE"> F  </i>
   <i type="logical" name="LTETE"> F  </i>
   <i type="logical" name="LTRIPLET"> F  </i>
   <i type="logical" name="LFXCEPS"> F  </i>
   <i type="logical" name="LFXHEG"> F  </i>
   <i type="int" name="NATURALO">     2</i>
   <i type="logical" name="LHOLEGF"> F  </i>
   <i type="logical" name="L2ORDER"> F  </i>
   <i type="logical" name="LDMP1"> F  </i>
   <i type="logical" name="LMP2LT"> F  </i>
   <i type="logical" name="LSMP2LT"> F  </i>
   <i type="logical" name="LGWLF"> F  </i>
   <i name="ENCUTGW">     -1.60000002</i>
   <i name="ENCUTGWSOFT">     -1.60000002</i>
   <i name="ENCUTLF">     -1.00000000</i>
   <i type="logical" name="LESF_SPLINES"> F  </i>
   <i type="int" name="LMAXMP2">    -1</i>
   <i name="SCISSOR">      0.00000000</i>
   <i type="int" name="NOMEGA">     0</i>
   <i type="int" name="NOMEGAR">     0</i>
   <i type="int" name="NBANDSGW">    -1</i>
   <i type="int" name="NBANDSO">    -1</i>
   <i type="int" name="NBANDSV">    -1</i>
   <i type="int" name="NELMGW">     1</i>
   <i type="int" name="NELMHF">     1</i>
   <i type="int" name="DIM">     3</i>
   <i type="int" name="IESPILON">     4</i>
   <i type="int" name="ANTIRES">     0</i>
   <i name="OMEGAMAX">    -30.00000000</i>
   <i name="OMEGAMIN">    -30.00000000</i>
   <i name="OMEGATL">   -200.00000000</i>
   <i type="int" name="OMEGAGRID">     0</i>
   <i name="CSHIFT">     -0.10000000</i>
   <i type="logical" name="LSELFENERGY"> F  </i>
   <i type="logical" name="LSPECTRAL"> F  </i>
   <i type="logical" name="LSPECTRALGW"> F  </i>
   <i type="logical" name="LSINGLES"> F  </i>
   <i type="logical" name="LFERMIGW"> F  </i>
   <i type="logical" name="ODDONLYGW"> F  </i>
   <i type="logical" name="EVENONLYGW"> F  </i>
   <i type="int" name="NKREDLFX">     1</i>
   <i type="int" name="NKREDLFY">     1</i>
   <i type="int" name="NKREDLFZ">     1</i>
   <i type="int" name="MAXMEM">  2800</i>
   <i type="int" name="TELESCOPE">     0</i>
   <i type="int" name="NTAUPAR">    -1</i>
   <i type="int" name="NOMEGAPAR">    -1</i>
   <i name="DAMP_NEWTON">      0.80000001</i>
   <i name="LAMBDA">      1.00000000</i>
  </separator>
  <separator name="External order field" >
   <i name="OFIELD_KAPPA">      0.00000000</i>
   <v name="OFIELD_K">      0.00000000      0.00000000      0.00000000</v>
   <i name="OFIELD_Q6_NEAR">      0.00000000</i>
   <i name="OFIELD_Q6_FAR">      0.00000000</i>
   <i name="OFIELD_A">      0.00000000</i>
  </separator>
  <separator name="optional k-points parameters" >
   <i type="int" name="KPOINTS_OPT_MODE">     1</i>
   <i type="logical" name="LKPOINTS_OPT"> F  </i>
  </separator>
 </parameters>
 <atominfo>
  <atoms>      18 </atoms>
  <types>       1 </types>
  <array name="atoms" >
   <dimension dim="1">ion</dimension>
   <field type="string">element</field>
   <field type="int">atomtype</field>
   <set>
    <rc><c>C </c><c>   1</c></rc>
    <rc><c>C </c><c>   1</c></rc>
    <rc><c>C </c><c>   1</c></rc>
    <rc><c>C </c><c>   1</c></rc>
    <rc><c>C </c><c>   1</c></rc>
    <rc><c>C </c><c>   1</c></rc>
    <rc><c>C </c><c>   1</c></rc>
    <rc><c>C </c><c>   1</c></rc>
    <rc><c>C </c><c>   1</c></rc>
    <rc><c>C </c><c>   1</c></rc>
    <rc><c>C </c><c>   1</c></rc>
    <rc><c>C </c><c>   1</c></rc>
    <rc><c>C </c><c>   1</c></rc>
    <rc><c>C </c><c>   1</c></rc>
    <rc><c>C </c><c>   1</c></rc>
    <rc><c>C </c><c>   1</c></rc>
    <rc><c>C </c><c>   1</c></rc>
    <rc><c>C </c><c>   1</c></rc>
   </set>
  </array>
  <array name="atomtypes" >
   <dimension dim="1">type</dimension>
   <field type="int">atomspertype</field>
   <field type="string">element</field>
   <field>mass</field>
   <field>valence</field>
   <field type="string">pseudopotential</field>
   <set>
    <rc><c>  18</c><c>C </c><c>     12.01100000</c><c>      4.00000000</c><c>  PAW_PBE C 08Apr2002                   </c></rc>
   </set>
  </array>
 </atominfo>
 <structure name="initialpos" >
  <crystal>
   <varray name="basis" >
    <v>       7.40170591       0.00000000       0.00000000 </v>
    <v>      -3.70085295       6.41006527       0.00000000 </v>
    <v>       0.00000000       0.00000000      20.00000000 </v>
   </varray>
   <i name="volume">    948.90835877 </i>
   <varray name="rec_basis" >
    <v>       0.13510399       0.07800233       0.00000000 </v>
    <v>       0.00000000       0.15600465       0.00000000 </v>
    <v>       0.00000000       0.00000000       0.05000000 </v>
   </varray>
  </crystal>
  <varray name="positions" >
   <v>       0.00000000       0.00000000       0.49950000 </v>
   <v>       0.33333333       0.00000000       0.50000000 </v>
   <v>       0.66666667       0.00000000       0.50000000 </v>
   <v>       0.00000000       0.33333333       0.50000000 </v>
   <v>       0.33333333       0.33333333       0.50000000 </v>
   <v>       0.66666667       0.33333333       0.50000000 </v>
   <v>       0.00000000       0.66666667       0.50000000 </v>
   <v>       0.33333333       0.66666667       0.50000000 </v>
   <v>       0.66666667       0.66666667       0.50000000 </v>
   <v>       0.22222222       0.11111111       0.49950000 </v>
   <v>       0.55555556       0.11111111       0.50000000 </v>
   <v>       0.88888889       0.11111111       0.50000000 </v>
   <v>       0.22222222       0.44444444       0.50000000 </v>
   <v>       0.55555556       0.44444444       0.50000000 </v>
   <v>       0.88888889       0.44444444       0.50000000 </v>
   <v>       0.22222222       0.77777778       0.50000000 </v>
   <v>       0.55555556       0.77777778       0.50000000 </v>
   <v>       0.88888889       0.77777778       0.50000000 </v>
  </varray>
 </structure>
 <calculation>
  <scstep>
   <time name="dav">    3.75    3.89</time>
   <time name="total">    3.84    3.98</time>
   <energy>
    <i name="alphaZ">     28.04858418 </i>
    <i name="ewald">  11638.81265578 </i>
    <i name="hartreedc"> -13553.13977636 </i>
    <i name="XCdc">    237.17703473 </i>
    <i name="pawpsdc">   1953.39683484 </i>
    <i name="pawaedc">  -1963.64613940 </i>
    <i name="eentropy">     -0.01367032 </i>
    <i name="bandstr">   -251.06015794 </i>
    <i name="atom">   2648.70517965 </i>
    <i name="e_fr_energy">    738.28054517 </i>
    <i name="e_wo_entrp">    738.29421549 </i>
    <i name="e_0_energy">    738.28738033 </i>
   </energy>
  </scstep>
  <scstep>
   <time name="dav">    5.10    5.30</time>
   <time name="total">    5.10    5.30</time>
   <energy>
    <i name="e_fr_energy">    -24.74702536 </i>
    <i name="e_wo_entrp">    -24.74654102 </i>
    <i name="e_0_energy">    -24.74678319 </i>
   </energy>
  </scstep>
  <scstep>
   <time name="dav">    4.10    4.26</time>
   <time name="total">    4.10    4.26</time>
   <energy>
    <i name="e_fr_energy">   -172.42362188 </i>
    <i name="e_wo_entrp">   -172.42233023 </i>
    <i name="e_0_energy">   -172.42297605 </i>
   </energy>
  </scstep>
  <scstep>
   <time name="dav">    4.08    4.24</time>
   <time name="total">    4.08    4.24</time>
   <energy>
    <i name="e_fr_energy">   -177.35590033 </i>
    <i name="e_wo_entrp">   -177.35360700 </i>
    <i name="e_0_energy">   -177.35475367 </i>
   </energy>
  </scstep>
  <scstep>
   <time name="dav">    4.60    4.78</time>
   <time name="total">    4.78    4.97</time>
   <energy>
    <i name="e_fr_energy">   -177.48732912 </i>
    <i name="e_wo_entrp">   -177.48502631 </i>
    <i name="e_0_energy">   -177.48617771 </i>
   </energy>
  </scstep>
  <scstep>
   <time name="dav">    3.79    3.93</time>
   <time name="total">    4.05    4.20</time>
   <energy>
    <i name="e_fr_energy">   -169.32141260 </i>
    <i name="e_wo_entrp">   -169.31910979 </i>
    <i name="e_0_energy">   -169.32026120 </i>
   </energy>
  </scstep>
  <scstep>
   <time name="dav">    3.75    2.69</time>
   <time name="total">    4.01    2.96</time>
   <energy>
    <i name="e_fr_energy">   -166.15343566 </i>
    <i name="e_wo_entrp">   -166.15113284 </i>
    <i name="e_0_energy">   -166.15228425 </i>
   </energy>
  </scstep>
  <scstep>
   <time name="dav">    3.92    4.06</time>
   <time name="total">    4.18    4.33</time>
   <energy>
    <i name="e_fr_energy">   -166.09038553 </i>
    <i name="e_wo_entrp">   -166.08808272 </i>
    <i name="e_0_energy">   -166.08923412 </i>
   </energy>
  </scstep>
  <scstep>
   <time name="dav">    4.04    4.19</time>
   <time name="total">    4.30    4.46</time>
   <energy>
    <i name="e_fr_energy">   -166.07763958 </i>
    <i name="e_wo_entrp">   -166.07533677 </i>
    <i name="e_0_energy">   -166.07648818 </i>
   </energy>
  </scstep>
  <scstep>
   <time name="dav">    3.70    3.84</time>
   <time name="total">    3.96    4.11</time>
   <energy>
    <i name="e_fr_energy">   -166.05895110 </i>
    <i name="e_wo_entrp">   -166.05664829 </i>
    <i name="e_0_energy">   -166.05779969 </i>
   </energy>
  </scstep>
  <scstep>
   <time name="dav">    3.76    3.91</time>
   <time name="total">    4.02    4.17</time>
   <energy>
    <i name="e_fr_energy">   -166.06353158 </i>
    <i name="e_wo_entrp">   -166.06122877 </i>
    <i name="e_0_energy">   -166.06238018 </i>
   </energy>
  </scstep>
  <scstep>
   <time name="dav">    3.53    3.67</time>
   <time name="total">    3.79    3.93</time>
   <energy>
    <i name="e_fr_energy">   -166.06813424 </i>
    <i name="e_wo_entrp">   -166.06583143 </i>
    <i name="e_0_energy">   -166.06698284 </i>
   </energy>
  </scstep>
  <scstep>
   <time name="dav">    3.76    3.91</time>
   <time name="total">    4.03    4.18</time>
   <energy>
    <i name="e_fr_energy">   -166.07279488 </i>
    <i name="e_wo_entrp">   -166.07049207 </i>
    <i name="e_0_energy">   -166.07164348 </i>
   </energy>
  </scstep>
  <scstep>
   <time name="dav">    3.57    3.70</time>
   <time name="total">    3.83    3.98</time>
   <energy>
    <i name="e_fr_energy">   -166.07608741 </i>
    <i name="e_wo_entrp">   -166.07378460 </i>
    <i name="e_0_energy">   -166.07493600 </i>
   </energy>
  </scstep>
  <scstep>
   <time name="dav">    3.95    2.92</time>
   <time name="total">    4.22    3.19</time>
   <energy>
    <i name="e_fr_energy">   -166.07685427 </i>
    <i name="e_wo_entrp">   -166.07455146 </i>
    <i name="e_0_energy">   -166.07570286 </i>
   </energy>
  </scstep>
  <scstep>
   <time name="dav">    3.49    3.62</time>
   <time name="total">    3.77    3.90</time>
   <energy>
    <i name="e_fr_energy">   -166.07697384 </i>
    <i name="e_wo_entrp">   -166.07467103 </i>
    <i name="e_0_energy">   -166.07582244 </i>
   </energy>
  </scstep>
  <scstep>
   <time name="dav">    3.18    3.30</time>
   <time name="total">    3.44    3.56</time>
   <energy>
    <i name="e_fr_energy">   -166.07704717 </i>
    <i name="e_wo_entrp">   -166.07474436 </i>
    <i name="e_0_energy">   -166.07589577 </i>
   </energy>
  </scstep>
  <scstep>
   <time name="dav">    3.33    3.46</time>
   <time name="total">    3.58    3.72</time>
   <energy>
    <i name="e_fr_energy">   -166.07706991 </i>
    <i name="e_wo_entrp">   -166.07476710 </i>
    <i name="e_0_energy">   -166.07591851 </i>
   </energy>
  </scstep>
  <scstep>
   <time name="dav">    3.10    3.23</time>
   <time name="total">    3.38    3.51</time>
   <energy>
    <i name="e_fr_energy">   -166.07709547 </i>
    <i name="e_wo_entrp">   -166.07479266 </i>
    <i name="e_0_energy">   -166.07594407 </i>
   </energy>
  </scstep>
  <scstep>
   <time name="dav">    2.55    2.65</time>
   <time name="total">    2.81    2.92</time>
   <energy>
    <i name="e_fr_energy">   -166.07710253 </i>
    <i name="e_wo_entrp">   -166.07479972 </i>
    <i name="e_0_energy">   -166.07595113 </i>
   </energy>
  </scstep>
  <scstep>
   <time name="dav">    2.48    2.59</time>
   <time name="total">    2.74    2.86</time>
   <energy>
    <i name="e_fr_energy">   -166.07710454 </i>
    <i name="e_wo_entrp">   -166.07480173 </i>
    <i name="e_0_energy">   -166.07595314 </i>
   </energy>
  </scstep>
  <scstep>
   <time name="dav">    2.59    2.69</time>
   <time name="total">    2.67    2.78</time>
   <energy>
    <i name="alphaZ">     28.04858418 </i>
    <i name="ewald">  11638.81265578 </i>
    <i name="hartreedc"> -13861.46872943 </i>
    <i name="XCdc">    247.81328676 </i>
    <i name="pawpsdc">   7452.64412755 </i>
    <i name="pawaedc">  -7464.90738346 </i>
    <i name="eentropy">     -0.00230281 </i>
    <i name="bandstr">   -855.72252313 </i>
    <i name="atom">   2648.70517965 </i>
    <i name="e_fr_energy">   -166.07710490 </i>
    <i name="e_wo_entrp">   -166.07480209 </i>
    <i name="e_0_energy">   -166.07595350 </i>
   </energy>
  </scstep>
  <structure>
   <crystal>
    <varray name="basis" >
     <v>       7.40170591       0.00000000       0.00000000 </v>
     <v>      -3.70085295       6.41006527       0.00000000 </v>
     <v>       0.00000000       0.00000000      20.00000000 </v>
    </varray>
    <i name="volume">    948.90835877 </i>
    <varray name="rec_basis" >
     <v>       0.13510399       0.07800233       0.00000000 </v>
     <v>       0.00000000       0.15600465       0.00000000 </v>
     <v>       0.00000000       0.00000000       0.05000000 </v>
    </varray>
   </crystal>
   <varray name="positions" >
    <v>       0.00000000       0.00000000       0.49950000 </v>
    <v>       0.33333333       0.00000000       0.50000000 </v>
    <v>       0.66666667       0.00000000       0.50000000 </v>
    <v>       0.00000000       0.33333333       0.50000000 </v>
    <v>       0.33333333       0.33333333       0.50000000 </v>
    <v>       0.66666667       0.33333333       0.50000000 </v>
    <v>       0.00000000       0.66666667       0.50000000 </v>
    <v>       0.33333333       0.66666667       0.50000000 </v>
    <v>       0.66666667       0.66666667       0.50000000 </v>
    <v>       0.22222222       0.11111111       0.49950000 </v>
    <v>       0.55555556       0.11111111       0.50000000 </v>
    <v>       0.88888889       0.11111111       0.50000000 </v>
    <v>       0.22222222       0.44444444       0.50000000 </v>
    <v>       0.55555556       0.44444444       0.50000000 </v>
    <v>       0.88888889       0.44444444       0.50000000 </v>
    <v>       0.22222222       0.77777778       0.50000000 </v>
    <v>       0.55555556       0.77777778       0.50000000 </v>
    <v>       0.88888889       0.77777778       0.50000000 </v>
   </varray>
  </structure>
  <varray name="forces" >
   <v>      -0.00062332      -0.00035988       0.08098810 </v>
   <v>      -0.00065017       0.00022202      -0.05680100 </v>
   <v>       0.00005069       0.00001411       0.01399309 </v>
   <v>      -0.00001100      -0.00008449       0.00152327 </v>
   <v>      -0.00013281      -0.00067407      -0.05680100 </v>
   <v>       0.00013157       0.00007596      -0.00544513 </v>
   <v>      -0.00007867       0.00003272       0.00152327 </v>
   <v>       0.00011625       0.00006712       0.00702632 </v>
   <v>       0.00003757       0.00003685       0.01399309 </v>
   <v>       0.00062332       0.00035988       0.08098810 </v>
   <v>      -0.00005069      -0.00001411       0.01399309 </v>
   <v>       0.00065017      -0.00022202      -0.05680100 </v>
   <v>       0.00007867      -0.00003272       0.00152327 </v>
   <v>      -0.00003757      -0.00003685       0.01399309 </v>
   <v>      -0.00011625      -0.00006712       0.00702632 </v>
   <v>       0.00001100       0.00008449       0.00152327 </v>
   <v>      -0.00013157      -0.00007596      -0.00544513 </v>
   <v>       0.00013281       0.00067407      -0.05680100 </v>
  </varray>
  <varray name="stress" >
   <v>      -0.16754499       0.00027686      -0.00000000 </v>
   <v>       0.00027686      -0.16786468       0.00000000 </v>
   <v>       0.00000000       0.00000000      -0.57101207 </v>
  </varray>
  <energy>
   <i name="e_fr_energy">   -166.07710490 </i>
   <i name="e_wo_entrp">   -166.07480209 </i>
   <i name="e_0_energy">   -166.07595350 </i>
  </energy>
  <time name="totalsc">   88.07   89.06</time>
  <eigenvalues>
   <array>
    <dimension dim="1">band</dimension>
    <dimension dim="2">kpoint</dimension>
    <dimension dim="3">spin</dimension>
    <field>eigene</field>
    <field>occ</field>
    <set>
     <set comment="spin 1">
      <set comment="kpoint 1">
       <r>  -22.2558    1.0000 </r>
       <r>  -19.6733    1.0000 </r>
       <r>  -19.6733    1.0000 </r>
       <r>  -19.6733    1.0000 </r>
       <r>  -19.6733    1.0000 </r>
       <r>  -19.6732    1.0000 </r>
       <r>  -19.6732    1.0000 </r>
       <r>  -15.3408    1.0000 </r>
       <r>  -15.3407    1.0000 </r>
       <r>  -15.3407    1.0000 </r>
       <r>  -15.3406    1.0000 </r>
       <r>  -13.2896    1.0000 </r>
       <r>  -13.2895    1.0000 </r>
       <r>  -12.3748    1.0000 </r>
       <r>  -12.3747    1.0000 </r>
       <r>  -12.3747    1.0000 </r>
       <r>  -12.3746    1.0000 </r>
       <r>  -12.3746    1.0000 </r>
       <r>  -12.3746    1.0000 </r>
       <r>  -10.3598    1.0000 </r>
       <r>   -8.5237    1.0000 </r>
       <r>   -8.5236    1.0000 </r>
       <r>   -8.5236    1.0000 </r>
       <r>   -8.5236    1.0000 </r>
       <r>   -8.5236    1.0000 </r>
       <r>   -8.5235    1.0000 </r>
       <r>   -7.3709    1.0000 </r>
       <r>   -7.3709    1.0000 </r>
       <r>   -7.3709    1.0000 </r>
       <r>   -7.3708    1.0000 </r>
       <r>   -7.3707    1.0000 </r>
       <r>   -7.3706    1.0000 </r>
       <r>   -5.7847    1.0000 </r>
       <r>   -5.7845    1.0000 </r>
       <r>   -2.7554    0.5012 </r>
       <r>   -2.7553    0.4998 </r>
       <r>   -2.7553    0.4998 </r>
       <r>   -2.7552    0.4993 </r>
       <r>    0.5197    0.0000 </r>
       <r>    1.3124    0.0000 </r>
       <r>    1.6367    0.0000 </r>
       <r>    2.1434    0.0000 </r>
       <r>    2.1439    0.0000 </r>
       <r>    2.1442    0.0000 </r>
       <r>    2.1442    0.0000 </r>
       <r>    2.1442    0.0000 </r>
      </set>
      <set comment="kpoint 2">
       <r>  -22.2022    1.0000 </r>
       <r>  -20.3488    1.0000 </r>
       <r>  -19.9842    1.0000 </r>
       <r>  -19.9841    1.0000 </r>
       <r>  -19.2624    1.0000 </r>
       <r>  -19.2624    1.0000 </r>
       <r>  -18.9061    1.0000 </r>
       <r>  -15.9952    1.0000 </r>
       <r>  -15.9952    1.0000 </r>
       <r>  -14.9132    1.0000 </r>
       <r>  -14.9132    1.0000 </r>
       <r>  -13.5975    1.0000 </r>
       <r>  -12.9702    1.0000 </r>
       <r>  -12.9701    1.0000 </r>
       <r>  -12.9563    1.0000 </r>
       <r>  -12.9563    1.0000 </r>
       <r>  -11.7352    1.0000 </r>
       <r>  -11.7350    1.0000 </r>
       <r>  -11.1177    1.0000 </r>
       <r>  -10.2958    1.0000 </r>
       <r>   -8.8635    1.0000 </r>
       <r>   -8.8634    1.0000 </r>
       <r>   -8.8292    1.0000 </r>
       <r>   -8.5097    1.0000 </r>
       <r>   -8.5096    1.0000 </r>
       <r>   -8.1320    1.0000 </r>
       <r>   -8.1268    1.0000 </r>
       <r>   -7.7133    1.0000 </r>
       <r>   -7.7132    1.0000 </r>
       <r>   -6.9227    1.0000 </r>
       <r>   -6.9227    1.0000 </r>
       <r>   -6.5569    1.0000 </r>
       <r>   -6.0049    1.0000 </r>
       <r>   -5.9002    1.0000 </r>
       <r>   -3.5267    1.0000 </r>
       <r>   -3.5266    1.0000 </r>
       <r>   -2.0047    0.0000 </r>
       <r>   -2.0046    0.0000 </r>
       <r>    0.5922    0.0000 </r>
       <r>    0.8750    0.0000 </r>
       <r>    1.3860    0.0000 </r>
       <r>    1.4735    0.0000 </r>
       <r>    1.4738    0.0000 </r>
       <r>    1.7111    0.0000 </r>
       <r>    2.6295    0.0000 </r>
       <r>    2.7610    0.0000 </r>
      </set>
      <set comment="kpoint 3">
       <r>  -22.2022    1.0000 </r>
       <r>  -20.3488    1.0000 </r>
       <r>  -19.9841    1.0000 </r>
       <r>  -19.9841    1.0000 </r>
       <r>  -19.2624    1.0000 </r>
       <r>  -19.2624    1.0000 </r>
       <r>  -18.9061    1.0000 </r>
       <r>  -15.9952    1.0000 </r>
       <r>  -15.9952    1.0000 </r>
       <r>  -14.9132    1.0000 </r>
       <r>  -14.9132    1.0000 </r>
       <r>  -13.5975    1.0000 </r>
       <r>  -12.9702    1.0000 </r>
       <r>  -12.9701    1.0000 </r>
       <r>  -12.9563    1.0000 </r>
       <r>  -12.9562    1.0000 </r>
       <r>  -11.7352    1.0000 </r>
       <r>  -11.7351    1.0000 </r>
       <r>  -11.1177    1.0000 </r>
       <r>  -10.2958    1.0000 </r>
       <r>   -8.8635    1.0000 </r>
       <r>   -8.8634    1.0000 </r>
       <r>   -8.8292    1.0000 </r>
       <r>   -8.5097    1.0000 </r>
       <r>   -8.5096    1.0000 </r>
       <r>   -8.1319    1.0000 </r>
       <r>   -8.1268    1.0000 </r>
       <r>   -7.7133    1.0000 </r>
       <r>   -7.7132    1.0000 </r>
       <r>   -6.9227    1.0000 </r>
       <r>   -6.9227    1.0000 </r>
       <r>   -6.5570    1.0000 </r>
       <r>   -6.0047    1.0000 </r>
       <r>   -5.9003    1.0000 </r>
       <r>   -3.5267    1.0000 </r>
       <r>   -3.5266    1.0000 </r>
       <r>   -2.0047    0.0000 </r>
       <r>   -2.0046    0.0000 </r>
       <r>    0.5923    0.0000 </r>
       <r>    0.8748    0.0000 </r>
       <r>    1.3860    0.0000 </r>
       <r>    1.4736    0.0000 </r>
       <r>    1.4737    0.0000 </r>
       <r>    1.7111    0.0000 </r>
       <r>    2.6295    0.0000 </r>
       <r>    2.7610    0.0000 </r>
      </set>
      <set comment="kpoint 4">
       <r>  -22.0417    1.0000 </r>
       <r>  -20.9265    1.0000 </r>
       <r>  -20.1926    1.0000 </r>
       <r>  -20.1926    1.0000 </r>
       <r>  -18.7553    1.0000 </r>
       <r>  -18.7552    1.0000 </r>
       <r>  -18.0629    1.0000 </r>
       <r>  -16.7451    1.0000 </r>
       <r>  -16.7451    1.0000 </r>
       <r>  -14.7531    1.0000 </r>
       <r>  -14.6244    1.0000 </r>
       <r>  -14.6243    1.0000 </r>
       <r>  -13.4994    1.0000 </r>
       <r>  -13.4993    1.0000 </r>
       <r>  -12.1838    1.0000 </r>
       <r>  -12.1838    1.0000 </r>
       <r>  -11.0980    1.0000 </r>
       <r>  -11.0979    1.0000 </r>
       <r>  -10.1046    1.0000 </r>
       <r>   -9.8601    1.0000 </r>
       <r>   -9.4951    1.0000 </r>
       <r>   -9.4951    1.0000 </r>
       <r>   -9.0381    1.0000 </r>
       <r>   -8.7926    1.0000 </r>
       <r>   -8.7612    1.0000 </r>
       <r>   -8.7602    1.0000 </r>
       <r>   -7.9447    1.0000 </r>
       <r>   -7.9446    1.0000 </r>
       <r>   -7.6713    1.0000 </r>
       <r>   -6.6227    1.0000 </r>
       <r>   -6.3778    1.0000 </r>
       <r>   -6.3774    1.0000 </r>
       <r>   -6.2166    1.0000 </r>
       <r>   -5.7648    1.0000 </r>
       <r>   -4.2990    1.0000 </r>
       <r>   -4.2989    1.0000 </r>
       <r>   -1.2829    0.0000 </r>
       <r>   -1.2827    0.0000 </r>
       <r>   -0.2381    0.0000 </r>
       <r>    0.7867    0.0000 </r>
       <r>    0.7878    0.0000 </r>
       <r>    0.8111    0.0000 </r>
       <r>    1.6067    0.0000 </r>
       <r>    1.9346    0.0000 </r>
       <r>    2.3343    0.0000 </r>
       <r>    2.8508    0.0000 </r>
      </set>
      <set comment="kpoint 5">
       <r>  -22.0417    1.0000 </r>
       <r>  -20.9265    1.0000 </r>
       <r>  -20.1926    1.0000 </r>
       <r>  -20.1926    1.0000 </r>
       <r>  -18.7553    1.0000 </r>
       <r>  -18.7553    1.0000 </r>
       <r>  -18.0629    1.0000 </r>
       <r>  -16.7451    1.0000 </r>
       <r>  -16.7451    1.0000 </r>
       <r>  -14.7530    1.0000 </r>
       <r>  -14.6244    1.0000 </r>
       <r>  -14.6244    1.0000 </r>
       <r>  -13.4994    1.0000 </r>
       <r>  -13.4994    1.0000 </r>
       <r>  -12.1838    1.0000 </r>
       <r>  -12.1838    1.0000 </r>
       <r>  -11.0980    1.0000 </r>
       <r>  -11.0980    1.0000 </r>
       <r>  -10.1046    1.0000 </r>
       <r>   -9.8600    1.0000 </r>
       <r>   -9.4952    1.0000 </r>
       <r>   -9.4951    1.0000 </r>
       <r>   -9.0381    1.0000 </r>
       <r>   -8.7924    1.0000 </r>
       <r>   -8.7612    1.0000 </r>
       <r>   -8.7604    1.0000 </r>
       <r>   -7.9447    1.0000 </r>
       <r>   -7.9446    1.0000 </r>
       <r>   -7.6713    1.0000 </r>
       <r>   -6.6226    1.0000 </r>
       <r>   -6.3777    1.0000 </r>
       <r>   -6.3774    1.0000 </r>
       <r>   -6.2168    1.0000 </r>
       <r>   -5.7648    1.0000 </r>
       <r>   -4.2990    1.0000 </r>
       <r>   -4.2989    1.0000 </r>
       <r>   -1.2829    0.0000 </r>
       <r>   -1.2828    0.0000 </r>
       <r>   -0.2380    0.0000 </r>
       <r>    0.7855    0.0000 </r>
       <r>    0.7877    0.0000 </r>
       <r>    0.8125    0.0000 </r>
       <r>    1.6067    0.0000 </r>
       <r>    1.9346    0.0000 </r>
       <r>    2.3342    0.0000 </r>
       <r>    2.8508    0.0000 </r>
      </set>
      <set comment="kpoint 6">
       <r>  -21.7749    1.0000 </r>
       <r>  -21.4026    1.0000 </r>
       <r>  -20.2972    1.0000 </r>
       <r>  -20.2972    1.0000 </r>
       <r>  -18.1581    1.0000 </r>
       <r>  -18.1581    1.0000 </r>
       <r>  -17.4813    1.0000 </r>
       <r>  -17.4813    1.0000 </r>
       <r>  -17.2288    1.0000 </r>
       <r>  -15.7457    1.0000 </r>
       <r>  -14.3222    1.0000 </r>
       <r>  -14.3221    1.0000 </r>
       <r>  -13.9511    1.0000 </r>
       <r>  -13.9509    1.0000 </r>
       <r>  -11.2586    1.0000 </r>
       <r>  -11.2586    1.0000 </r>
       <r>  -10.5973    1.0000 </r>
       <r>  -10.5971    1.0000 </r>
       <r>  -10.3278    1.0000 </r>
       <r>  -10.3278    1.0000 </r>
       <r>   -9.7876    1.0000 </r>
       <r>   -9.3483    1.0000 </r>
       <r>   -9.1440    1.0000 </r>
       <r>   -9.0904    1.0000 </r>
       <r>   -9.0903    1.0000 </r>
       <r>   -8.6463    1.0000 </r>
       <r>   -8.0610    1.0000 </r>
       <r>   -8.0610    1.0000 </r>
       <r>   -7.5385    1.0000 </r>
       <r>   -7.1688    1.0000 </r>
       <r>   -6.6645    1.0000 </r>
       <r>   -5.7469    1.0000 </r>
       <r>   -5.7469    1.0000 </r>
       <r>   -5.1980    1.0000 </r>
       <r>   -5.0472    1.0000 </r>
       <r>   -5.0472    1.0000 </r>
       <r>   -0.9701    0.0000 </r>
       <r>   -0.5850    0.0000 </r>
       <r>   -0.5847    0.0000 </r>
       <r>    0.1016    0.0000 </r>
       <r>    0.1018    0.0000 </r>
       <r>    1.1737    0.0000 </r>
       <r>    1.6819    0.0000 </r>
       <r>    1.9741    0.0000 </r>
       <r>    2.3070    0.0000 </r>
       <r>    2.4871    0.0000 </r>
      </set>
      <set comment="kpoint 7">
       <r>  -21.7748    1.0000 </r>
       <r>  -21.4026    1.0000 </r>
       <r>  -20.2972    1.0000 </r>
       <r>  -20.2972    1.0000 </r>
       <r>  -18.1581    1.0000 </r>
       <r>  -18.1581    1.0000 </r>
       <r>  -17.4813    1.0000 </r>
       <r>  -17.4813    1.0000 </r>
       <r>  -17.2289    1.0000 </r>
       <r>  -15.7456    1.0000 </r>
       <r>  -14.3222    1.0000 </r>
       <r>  -14.3221    1.0000 </r>
       <r>  -13.9510    1.0000 </r>
       <r>  -13.9510    1.0000 </r>
       <r>  -11.2586    1.0000 </r>
       <r>  -11.2586    1.0000 </r>
       <r>  -10.5973    1.0000 </r>
       <r>  -10.5972    1.0000 </r>
       <r>  -10.3278    1.0000 </r>
       <r>  -10.3278    1.0000 </r>
       <r>   -9.7876    1.0000 </r>
       <r>   -9.3482    1.0000 </r>
       <r>   -9.1439    1.0000 </r>
       <r>   -9.0903    1.0000 </r>
       <r>   -9.0903    1.0000 </r>
       <r>   -8.6462    1.0000 </r>
       <r>   -8.0611    1.0000 </r>
       <r>   -8.0611    1.0000 </r>
       <r>   -7.5384    1.0000 </r>
       <r>   -7.1688    1.0000 </r>
       <r>   -6.6646    1.0000 </r>
       <r>   -5.7469    1.0000 </r>
       <r>   -5.7469    1.0000 </r>
       <r>   -5.1980    1.0000 </r>
       <r>   -5.0472    1.0000 </r>
       <r>   -5.0472    1.0000 </r>
       <r>   -0.9701    0.0000 </r>
       <r>   -0.5849    0.0000 </r>
       <r>   -0.5848    0.0000 </r>
       <r>    0.1017    0.0000 </r>
       <r>    0.1018    0.0000 </r>
       <r>    1.1736    0.0000 </r>
       <r>    1.6818    0.0000 </r>
       <r>    1.9741    0.0000 </r>
       <r>    2.3069    0.0000 </r>
       <r>    2.4870    0.0000 </r>
      </set>
      <set comment="kpoint 8">
       <r>  -22.0952    1.0000 </r>
       <r>  -20.6109    1.0000 </r>
       <r>  -20.6108    1.0000 </r>
       <r>  -19.5193    1.0000 </r>
       <r>  -19.5193    1.0000 </r>
       <r>  -18.4549    1.0000 </r>
       <r>  -18.4548    1.0000 </r>
       <r>  -16.7786    1.0000 </r>
       <r>  -16.1617    1.0000 </r>
       <r>  -15.2403    1.0000 </r>
       <r>  -14.2550    1.0000 </r>
       <r>  -14.1586    1.0000 </r>
       <r>  -14.1585    1.0000 </r>
       <r>  -12.6046    1.0000 </r>
       <r>  -12.3071    1.0000 </r>
       <r>  -12.3071    1.0000 </r>
       <r>  -12.2712    1.0000 </r>
       <r>  -10.4865    1.0000 </r>
       <r>  -10.4864    1.0000 </r>
       <r>  -10.1682    1.0000 </r>
       <r>   -9.1766    1.0000 </r>
       <r>   -9.1765    1.0000 </r>
       <r>   -9.1237    1.0000 </r>
       <r>   -9.1236    1.0000 </r>
       <r>   -8.4260    1.0000 </r>
       <r>   -8.4258    1.0000 </r>
       <r>   -8.0747    1.0000 </r>
       <r>   -8.0747    1.0000 </r>
       <r>   -7.1908    1.0000 </r>
       <r>   -7.1907    1.0000 </r>
       <r>   -6.4087    1.0000 </r>
       <r>   -6.1322    1.0000 </r>
       <r>   -6.1043    1.0000 </r>
       <r>   -6.1039    1.0000 </r>
       <r>   -4.2578    1.0000 </r>
       <r>   -3.8994    1.0000 </r>
       <r>   -1.7105    0.0000 </r>
       <r>   -1.2652    0.0000 </r>
       <r>    0.2727    0.0000 </r>
       <r>    0.2730    0.0000 </r>
       <r>    0.7378    0.0000 </r>
       <r>    1.5331    0.0000 </r>
       <r>    1.8601    0.0000 </r>
       <r>    2.0113    0.0000 </r>
       <r>    2.0117    0.0000 </r>
       <r>    2.7770    0.0000 </r>
      </set>
      <set comment="kpoint 9">
       <r>  -22.0952    1.0000 </r>
       <r>  -20.6109    1.0000 </r>
       <r>  -20.6109    1.0000 </r>
       <r>  -19.5193    1.0000 </r>
       <r>  -19.5193    1.0000 </r>
       <r>  -18.4549    1.0000 </r>
       <r>  -18.4548    1.0000 </r>
       <r>  -16.7787    1.0000 </r>
       <r>  -16.1617    1.0000 </r>
       <r>  -15.2404    1.0000 </r>
       <r>  -14.2549    1.0000 </r>
       <r>  -14.1586    1.0000 </r>
       <r>  -14.1585    1.0000 </r>
       <r>  -12.6046    1.0000 </r>
       <r>  -12.3071    1.0000 </r>
       <r>  -12.3071    1.0000 </r>
       <r>  -12.2711    1.0000 </r>
       <r>  -10.4865    1.0000 </r>
       <r>  -10.4863    1.0000 </r>
       <r>  -10.1681    1.0000 </r>
       <r>   -9.1766    1.0000 </r>
       <r>   -9.1765    1.0000 </r>
       <r>   -9.1237    1.0000 </r>
       <r>   -9.1236    1.0000 </r>
       <r>   -8.4260    1.0000 </r>
       <r>   -8.4258    1.0000 </r>
       <r>   -8.0748    1.0000 </r>
       <r>   -8.0746    1.0000 </r>
       <r>   -7.1907    1.0000 </r>
       <r>   -7.1907    1.0000 </r>
       <r>   -6.4086    1.0000 </r>
       <r>   -6.1327    1.0000 </r>
       <r>   -6.1042    1.0000 </r>
       <r>   -6.1036    1.0000 </r>
       <r>   -4.2578    1.0000 </r>
       <r>   -3.8993    1.0000 </r>
       <r>   -1.7105    0.0000 </r>
       <r>   -1.2652    0.0000 </r>
       <r>    0.2729    0.0000 </r>
       <r>    0.2730    0.0000 </r>
       <r>    0.7377    0.0000 </r>
       <r>    1.5331    0.0000 </r>
       <r>    1.8600    0.0000 </r>
       <r>    2.0115    0.0000 </r>
       <r>    2.0116    0.0000 </r>
       <r>    2.7770    0.0000 </r>
      </set>
      <set comment="kpoint 10">
       <r>  -21.8815    1.0000 </r>
       <r>  -21.1378    1.0000 </r>
       <r>  -20.7687    1.0000 </r>
       <r>  -19.6743    1.0000 </r>
       <r>  -18.9580    1.0000 </r>
       <r>  -17.9166    1.0000 </r>
       <r>  -17.5935    1.0000 </r>
       <r>  -17.5729    1.0000 </r>
       <r>  -16.6711    1.0000 </r>
       <r>  -15.2537    1.0000 </r>
       <r>  -15.2500    1.0000 </r>
       <r>  -14.6349    1.0000 </r>
       <r>  -13.7273    1.0000 </r>
       <r>  -12.8211    1.0000 </r>
       <r>  -11.8986    1.0000 </r>
       <r>  -11.6826    1.0000 </r>
       <r>  -11.3888    1.0000 </r>
       <r>  -10.0394    1.0000 </r>
       <r>   -9.9196    1.0000 </r>
       <r>   -9.9110    1.0000 </r>
       <r>   -9.7108    1.0000 </r>
       <r>   -9.6303    1.0000 </r>
       <r>   -9.2826    1.0000 </r>
       <r>   -9.2646    1.0000 </r>
       <r>   -9.0374    1.0000 </r>
       <r>   -8.6066    1.0000 </r>
       <r>   -8.2589    1.0000 </r>
       <r>   -7.5790    1.0000 </r>
       <r>   -7.3540    1.0000 </r>
       <r>   -7.1430    1.0000 </r>
       <r>   -6.5688    1.0000 </r>
       <r>   -6.5455    1.0000 </r>
       <r>   -5.5814    1.0000 </r>
       <r>   -5.3854    1.0000 </r>
       <r>   -5.0741    1.0000 </r>
       <r>   -4.4328    1.0000 </r>
       <r>   -1.2966    0.0000 </r>
       <r>   -0.6853    0.0000 </r>
       <r>   -0.4250    0.0000 </r>
       <r>   -0.2984    0.0000 </r>
       <r>    1.0284    0.0000 </r>
       <r>    1.2241    0.0000 </r>
       <r>    1.8272    0.0000 </r>
       <r>    2.0448    0.0000 </r>
       <r>    2.1580    0.0000 </r>
       <r>    2.4027    0.0000 </r>
      </set>
      <set comment="kpoint 11">
       <r>  -21.8815    1.0000 </r>
       <r>  -21.1378    1.0000 </r>
       <r>  -20.7687    1.0000 </r>
       <r>  -19.6743    1.0000 </r>
       <r>  -18.9580    1.0000 </r>
       <r>  -17.9166    1.0000 </r>
       <r>  -17.5935    1.0000 </r>
       <r>  -17.5729    1.0000 </r>
       <r>  -16.6711    1.0000 </r>
       <r>  -15.2537    1.0000 </r>
       <r>  -15.2501    1.0000 </r>
       <r>  -14.6349    1.0000 </r>
       <r>  -13.7272    1.0000 </r>
       <r>  -12.8211    1.0000 </r>
       <r>  -11.8987    1.0000 </r>
       <r>  -11.6826    1.0000 </r>
       <r>  -11.3888    1.0000 </r>
       <r>  -10.0394    1.0000 </r>
       <r>   -9.9196    1.0000 </r>
       <r>   -9.9110    1.0000 </r>
       <r>   -9.7108    1.0000 </r>
       <r>   -9.6302    1.0000 </r>
       <r>   -9.2825    1.0000 </r>
       <r>   -9.2645    1.0000 </r>
       <r>   -9.0374    1.0000 </r>
       <r>   -8.6066    1.0000 </r>
       <r>   -8.2588    1.0000 </r>
       <r>   -7.5790    1.0000 </r>
       <r>   -7.3540    1.0000 </r>
       <r>   -7.1428    1.0000 </r>
       <r>   -6.5680    1.0000 </r>
       <r>   -6.5465    1.0000 </r>
       <r>   -5.5814    1.0000 </r>
       <r>   -5.3855    1.0000 </r>
       <r>   -5.0742    1.0000 </r>
       <r>   -4.4328    1.0000 </r>
       <r>   -1.2966    0.0000 </r>
       <r>   -0.6852    0.0000 </r>
       <r>   -0.4249    0.0000 </r>
       <r>   -0.2984    0.0000 </r>
       <r>    1.0281    0.0000 </r>
       <r>    1.2243    0.0000 </r>
       <r>    1.8272    0.0000 </r>
       <r>    2.0448    0.0000 </r>
       <r>    2.1580    0.0000 </r>
       <r>    2.4022    0.0000 </r>
      </set>
      <set comment="kpoint 12">
       <r>  -21.8815    1.0000 </r>
       <r>  -21.1378    1.0000 </r>
       <r>  -20.7687    1.0000 </r>
       <r>  -19.6743    1.0000 </r>
       <r>  -18.9580    1.0000 </r>
       <r>  -17.9166    1.0000 </r>
       <r>  -17.5935    1.0000 </r>
       <r>  -17.5729    1.0000 </r>
       <r>  -16.6711    1.0000 </r>
       <r>  -15.2537    1.0000 </r>
       <r>  -15.2500    1.0000 </r>
       <r>  -14.6349    1.0000 </r>
       <r>  -13.7273    1.0000 </r>
       <r>  -12.8210    1.0000 </r>
       <r>  -11.8986    1.0000 </r>
       <r>  -11.6826    1.0000 </r>
       <r>  -11.3888    1.0000 </r>
       <r>  -10.0395    1.0000 </r>
       <r>   -9.9178    1.0000 </r>
       <r>   -9.9129    1.0000 </r>
       <r>   -9.7108    1.0000 </r>
       <r>   -9.6302    1.0000 </r>
       <r>   -9.2825    1.0000 </r>
       <r>   -9.2645    1.0000 </r>
       <r>   -9.0374    1.0000 </r>
       <r>   -8.6067    1.0000 </r>
       <r>   -8.2588    1.0000 </r>
       <r>   -7.5790    1.0000 </r>
       <r>   -7.3540    1.0000 </r>
       <r>   -7.1429    1.0000 </r>
       <r>   -6.5688    1.0000 </r>
       <r>   -6.5456    1.0000 </r>
       <r>   -5.5814    1.0000 </r>
       <r>   -5.3854    1.0000 </r>
       <r>   -5.0741    1.0000 </r>
       <r>   -4.4329    1.0000 </r>
       <r>   -1.2966    0.0000 </r>
       <r>   -0.6852    0.0000 </r>
       <r>   -0.4250    0.0000 </r>
       <r>   -0.2985    0.0000 </r>
       <r>    1.0284    0.0000 </r>
       <r>    1.2242    0.0000 </r>
       <r>    1.8272    0.0000 </r>
       <r>    2.0447    0.0000 </r>
       <r>    2.1580    0.0000 </r>
       <r>    2.4023    0.0000 </r>
      </set>
      <set comment="kpoint 13">
       <r>  -21.5620    1.0000 </r>
       <r>  -21.5619    1.0000 </r>
       <r>  -20.8214    1.0000 </r>
       <r>  -19.7261    1.0000 </r>
       <r>  -18.3060    1.0000 </r>
       <r>  -18.3059    1.0000 </r>
       <r>  -17.3075    1.0000 </r>
       <r>  -17.3075    1.0000 </r>
       <r>  -16.9870    1.0000 </r>
       <r>  -15.9391    1.0000 </r>
       <r>  -15.0097    1.0000 </r>
       <r>  -15.0096    1.0000 </r>
       <r>  -13.2820    1.0000 </r>
       <r>  -13.2819    1.0000 </r>
       <r>  -11.3579    1.0000 </r>
       <r>  -10.9878    1.0000 </r>
       <r>  -10.9878    1.0000 </r>
       <r>  -10.5000    1.0000 </r>
       <r>  -10.4999    1.0000 </r>
       <r>   -9.9054    1.0000 </r>
       <r>   -9.6352    1.0000 </r>
       <r>   -9.5357    1.0000 </r>
       <r>   -9.5356    1.0000 </r>
       <r>   -9.3360    1.0000 </r>
       <r>   -8.6671    1.0000 </r>
       <r>   -8.4186    1.0000 </r>
       <r>   -8.1250    1.0000 </r>
       <r>   -8.1250    1.0000 </r>
       <r>   -7.4091    1.0000 </r>
       <r>   -7.0535    1.0000 </r>
       <r>   -7.0533    1.0000 </r>
       <r>   -5.8557    1.0000 </r>
       <r>   -5.8556    1.0000 </r>
       <r>   -5.0628    1.0000 </r>
       <r>   -5.0125    1.0000 </r>
       <r>   -5.0123    1.0000 </r>
       <r>   -1.0893    0.0000 </r>
       <r>   -0.8233    0.0000 </r>
       <r>   -0.8232    0.0000 </r>
       <r>    0.4103    0.0000 </r>
       <r>    0.4105    0.0000 </r>
       <r>    1.4642    0.0000 </r>
       <r>    1.4644    0.0000 </r>
       <r>    2.2676    0.0000 </r>
       <r>    2.2676    0.0000 </r>
       <r>    2.4845    0.0000 </r>
      </set>
      <set comment="kpoint 14">
       <r>  -21.5620    1.0000 </r>
       <r>  -21.5619    1.0000 </r>
       <r>  -20.8214    1.0000 </r>
       <r>  -19.7261    1.0000 </r>
       <r>  -18.3060    1.0000 </r>
       <r>  -18.3060    1.0000 </r>
       <r>  -17.3075    1.0000 </r>
       <r>  -17.3075    1.0000 </r>
       <r>  -16.9870    1.0000 </r>
       <r>  -15.9390    1.0000 </r>
       <r>  -15.0097    1.0000 </r>
       <r>  -15.0096    1.0000 </r>
       <r>  -13.2820    1.0000 </r>
       <r>  -13.2819    1.0000 </r>
       <r>  -11.3580    1.0000 </r>
       <r>  -10.9879    1.0000 </r>
       <r>  -10.9878    1.0000 </r>
       <r>  -10.5000    1.0000 </r>
       <r>  -10.4999    1.0000 </r>
       <r>   -9.9053    1.0000 </r>
       <r>   -9.6352    1.0000 </r>
       <r>   -9.5358    1.0000 </r>
       <r>   -9.5356    1.0000 </r>
       <r>   -9.3360    1.0000 </r>
       <r>   -8.6671    1.0000 </r>
       <r>   -8.4185    1.0000 </r>
       <r>   -8.1250    1.0000 </r>
       <r>   -8.1249    1.0000 </r>
       <r>   -7.4091    1.0000 </r>
       <r>   -7.0535    1.0000 </r>
       <r>   -7.0534    1.0000 </r>
       <r>   -5.8557    1.0000 </r>
       <r>   -5.8556    1.0000 </r>
       <r>   -5.0628    1.0000 </r>
       <r>   -5.0124    1.0000 </r>
       <r>   -5.0124    1.0000 </r>
       <r>   -1.0892    0.0000 </r>
       <r>   -0.8233    0.0000 </r>
       <r>   -0.8232    0.0000 </r>
       <r>    0.4103    0.0000 </r>
       <r>    0.4105    0.0000 </r>
       <r>    1.4642    0.0000 </r>
       <r>    1.4643    0.0000 </r>
       <r>    2.2676    0.0000 </r>
       <r>    2.2676    0.0000 </r>
       <r>    2.5189    0.0000 </r>
      </set>
      <set comment="kpoint 15">
       <r>  -21.6151    1.0000 </r>
       <r>  -21.2437    1.0000 </r>
       <r>  -21.2436    1.0000 </r>
       <r>  -19.0600    1.0000 </r>
       <r>  -19.0600    1.0000 </r>
       <r>  -18.3556    1.0000 </r>
       <r>  -17.0888    1.0000 </r>
       <r>  -17.0887    1.0000 </r>
       <r>  -16.7115    1.0000 </r>
       <r>  -15.6765    1.0000 </r>
       <r>  -15.6143    1.0000 </r>
       <r>  -15.6142    1.0000 </r>
       <r>  -12.9180    1.0000 </r>
       <r>  -12.2633    1.0000 </r>
       <r>  -12.2632    1.0000 </r>
       <r>  -11.3540    1.0000 </r>
       <r>  -10.5572    1.0000 </r>
       <r>  -10.5494    1.0000 </r>
       <r>  -10.5493    1.0000 </r>
       <r>   -9.8196    1.0000 </r>
       <r>   -9.8195    1.0000 </r>
       <r>   -9.5986    1.0000 </r>
       <r>   -9.1610    1.0000 </r>
       <r>   -9.1609    1.0000 </r>
       <r>   -8.8220    1.0000 </r>
       <r>   -8.8219    1.0000 </r>
       <r>   -7.8829    1.0000 </r>
       <r>   -7.6862    1.0000 </r>
       <r>   -7.6861    1.0000 </r>
       <r>   -7.0826    1.0000 </r>
       <r>   -6.6646    1.0000 </r>
       <r>   -6.6645    1.0000 </r>
       <r>   -5.8934    1.0000 </r>
       <r>   -5.0051    1.0000 </r>
       <r>   -5.0051    1.0000 </r>
       <r>   -4.6730    1.0000 </r>
       <r>   -1.2277    0.0000 </r>
       <r>   -1.0247    0.0000 </r>
       <r>   -1.0246    0.0000 </r>
       <r>    0.5280    0.0000 </r>
       <r>    1.3916    0.0000 </r>
       <r>    1.4819    0.0000 </r>
       <r>    1.4825    0.0000 </r>
       <r>    1.9002    0.0000 </r>
       <r>    1.9006    0.0000 </r>
       <r>    2.1944    0.0000 </r>
      </set>
      <set comment="kpoint 16">
       <r>  -21.6151    1.0000 </r>
       <r>  -21.2437    1.0000 </r>
       <r>  -21.2436    1.0000 </r>
       <r>  -19.0600    1.0000 </r>
       <r>  -19.0600    1.0000 </r>
       <r>  -18.3556    1.0000 </r>
       <r>  -17.0888    1.0000 </r>
       <r>  -17.0888    1.0000 </r>
       <r>  -16.7115    1.0000 </r>
       <r>  -15.6766    1.0000 </r>
       <r>  -15.6143    1.0000 </r>
       <r>  -15.6142    1.0000 </r>
       <r>  -12.9180    1.0000 </r>
       <r>  -12.2633    1.0000 </r>
       <r>  -12.2633    1.0000 </r>
       <r>  -11.3541    1.0000 </r>
       <r>  -10.5572    1.0000 </r>
       <r>  -10.5493    1.0000 </r>
       <r>  -10.5493    1.0000 </r>
       <r>   -9.8196    1.0000 </r>
       <r>   -9.8195    1.0000 </r>
       <r>   -9.5985    1.0000 </r>
       <r>   -9.1610    1.0000 </r>
       <r>   -9.1609    1.0000 </r>
       <r>   -8.8220    1.0000 </r>
       <r>   -8.8220    1.0000 </r>
       <r>   -7.8828    1.0000 </r>
       <r>   -7.6861    1.0000 </r>
       <r>   -7.6860    1.0000 </r>
       <r>   -7.0826    1.0000 </r>
       <r>   -6.6646    1.0000 </r>
       <r>   -6.6646    1.0000 </r>
       <r>   -5.8934    1.0000 </r>
       <r>   -5.0051    1.0000 </r>
       <r>   -5.0051    1.0000 </r>
       <r>   -4.6730    1.0000 </r>
       <r>   -1.2278    0.0000 </r>
       <r>   -1.0247    0.0000 </r>
       <r>   -1.0246    0.0000 </r>
       <r>    0.5281    0.0000 </r>
       <r>    1.3908    0.0000 </r>
       <r>    1.4822    0.0000 </r>
       <r>    1.4827    0.0000 </r>
       <r>    1.9003    0.0000 </r>
       <r>    1.9006    0.0000 </r>
       <r>    2.1944    0.0000 </r>
      </set>
     </set>
    </set>
   </array>
  </eigenvalues>
  <separator name="orbital magnetization" >
   <v name="MAGDIPOLOUT">      0.00000000      0.00000000      0.00000000</v>
  </separator>
  <dos>
   <i name="efermi">     -2.75529193 </i>
   <total>
    <array>
     <dimension dim="1">gridpoints</dimension>
     <dimension dim="2">spin</dimension>
     <field>energy</field>
     <field>total</field>
     <field>integrated</field>
     <set>
      <set comment="spin 1">
       <r>   -23.5112     0.0000     0.0000 </r>
       <r>   -23.4191     0.0000     0.0000 </r>
       <r>   -23.3270     0.0000     0.0000 </r>
       <r>   -23.2350     0.0000     0.0000 </r>
       <r>   -23.1429     0.0000     0.0000 </r>
       <r>   -23.0509     0.0000     0.0000 </r>
       <r>   -22.9588     0.0000     0.0000 </r>
       <r>   -22.8667     0.0000     0.0000 </r>
       <r>   -22.7747     0.0000     0.0000 </r>
       <r>   -22.6826     0.0000     0.0000 </r>
       <r>   -22.5906     0.0000     0.0000 </r>
       <r>   -22.4985     0.0000     0.0000 </r>
       <r>   -22.4065     0.0000     0.0000 </r>
       <r>   -22.3144     0.0236     0.0022 </r>
       <r>   -22.2223     1.1016     0.1036 </r>
       <r>   -22.1303     2.3657     0.3214 </r>
       <r>   -22.0382     3.5650     0.6496 </r>
       <r>   -21.9462     1.5382     0.7912 </r>
       <r>   -21.8541     4.0169     1.1610 </r>
       <r>   -21.7621     2.8376     1.4222 </r>
       <r>   -21.6700     1.1187     1.5252 </r>
       <r>   -21.5779     3.8393     1.8786 </r>
       <r>   -21.4859     3.9196     2.2394 </r>
       <r>   -21.3938     1.6507     2.3914 </r>
       <r>   -21.3018     1.3297     2.5138 </r>
       <r>   -21.2097     4.2741     2.9073 </r>
       <r>   -21.1177     4.5904     3.3298 </r>
       <r>   -21.0256     1.5186     3.4696 </r>
       <r>   -20.9335     1.1194     3.5727 </r>
       <r>   -20.8415     2.3789     3.7917 </r>
       <r>   -20.7494     5.5258     4.3004 </r>
       <r>   -20.6574     2.1114     4.4947 </r>
       <r>   -20.5653     4.2981     4.8904 </r>
       <r>   -20.4733     0.5256     4.9388 </r>
       <r>   -20.3812     0.5253     4.9872 </r>
       <r>   -20.2891     5.1700     5.4631 </r>
       <r>   -20.1971     4.6657     5.8926 </r>
       <r>   -20.1050     2.9066     6.1602 </r>
       <r>   -20.0130     1.1371     6.2649 </r>
       <r>   -19.9209     4.0208     6.6350 </r>
       <r>   -19.8289     0.2010     6.6535 </r>
       <r>   -19.7368     1.3121     6.7743 </r>
       <r>   -19.6447     7.6683     7.4802 </r>
       <r>   -19.5527     2.5716     7.7170 </r>
       <r>   -19.4606     4.1467     8.0987 </r>
       <r>   -19.3686     0.2650     8.1231 </r>
       <r>   -19.2765     1.8286     8.2914 </r>
       <r>   -19.1844     3.4130     8.6056 </r>
       <r>   -19.0924     1.0284     8.7003 </r>
       <r>   -19.0003     4.7453     9.1371 </r>
       <r>   -18.9083     5.7800     9.6692 </r>
       <r>   -18.8162     2.0300     9.8561 </r>
       <r>   -18.7242     4.1016    10.2337 </r>
       <r>   -18.6321     1.0072    10.3264 </r>
       <r>   -18.5400     0.0439    10.3304 </r>
       <r>   -18.4480     3.0403    10.6103 </r>
       <r>   -18.3559     3.9641    10.9753 </r>
       <r>   -18.2639     5.6273    11.4933 </r>
       <r>   -18.1718     2.4863    11.7222 </r>
       <r>   -18.0798     4.2329    12.1118 </r>
       <r>   -17.9877     1.9619    12.2924 </r>
       <r>   -17.8956     3.7733    12.6398 </r>
       <r>   -17.8036     1.4705    12.7752 </r>
       <r>   -17.7115     0.0062    12.7757 </r>
       <r>   -17.6195     1.7280    12.9348 </r>
       <r>   -17.5274     8.7314    13.7386 </r>
       <r>   -17.4354     4.9851    14.1975 </r>
       <r>   -17.3433     1.3434    14.3212 </r>
       <r>   -17.2512     4.8951    14.7718 </r>
       <r>   -17.1592     2.3157    14.9850 </r>
       <r>   -17.0671     3.8564    15.3400 </r>
       <r>   -16.9751     3.0833    15.6238 </r>
       <r>   -16.8830     0.9825    15.7143 </r>
       <r>   -16.7910     1.5211    15.8543 </r>
       <r>   -16.6989     8.7695    16.6616 </r>
       <r>   -16.6068     5.4830    17.1664 </r>
       <r>   -16.5148     0.1879    17.1837 </r>
       <r>   -16.4227     0.0000    17.1837 </r>
       <r>   -16.3307     0.0000    17.1837 </r>
       <r>   -16.2386     0.0394    17.1873 </r>
       <r>   -16.1465     1.7322    17.3468 </r>
       <r>   -16.0545     1.1362    17.4514 </r>
       <r>   -15.9624     4.8086    17.8940 </r>
       <r>   -15.8704     2.8549    18.1568 </r>
       <r>   -15.7783     0.5478    18.2073 </r>
       <r>   -15.6863     3.2111    18.5029 </r>
       <r>   -15.5942     5.4082    19.0007 </r>
       <r>   -15.5021     1.5397    19.1425 </r>
       <r>   -15.4101     0.0481    19.1469 </r>
       <r>   -15.3180     1.6323    19.2972 </r>
       <r>   -15.2260    10.0161    20.2192 </r>
       <r>   -15.1339     3.3756    20.5300 </r>
       <r>   -15.0419     0.9712    20.6194 </r>
       <r>   -14.9498     4.9148    21.0718 </r>
       <r>   -14.8577     4.4553    21.4820 </r>
       <r>   -14.7657     1.2657    21.5985 </r>
       <r>   -14.6736     2.8305    21.8591 </r>
       <r>   -14.5816     8.5609    22.6472 </r>
       <r>   -14.4895     0.9504    22.7347 </r>
       <r>   -14.3975     0.0886    22.7428 </r>
       <r>   -14.3054     3.7446    23.0875 </r>
       <r>   -14.2133     4.1471    23.4693 </r>
       <r>   -14.1213     4.5451    23.8877 </r>
       <r>   -14.0292     0.8474    23.9657 </r>
       <r>   -13.9372     3.3995    24.2787 </r>
       <r>   -13.8451     1.8451    24.4485 </r>
       <r>   -13.7531     1.2441    24.5631 </r>
       <r>   -13.6610     4.0160    24.9328 </r>
       <r>   -13.5689     2.2991    25.1444 </r>
       <r>   -13.4769     4.3507    25.5449 </r>
       <r>   -13.3848     1.4060    25.6743 </r>
       <r>   -13.2928     2.4220    25.8973 </r>
       <r>   -13.2007     3.7130    26.2391 </r>
       <r>   -13.1086     0.0630    26.2449 </r>
       <r>   -13.0166     0.7438    26.3134 </r>
       <r>   -12.9245     9.5349    27.1912 </r>
       <r>   -12.8325     4.9873    27.6503 </r>
       <r>   -12.7404     3.2958    27.9537 </r>
       <r>   -12.6484     0.3471    27.9856 </r>
       <r>   -12.5563     2.1445    28.1830 </r>
       <r>   -12.4642     0.2434    28.2055 </r>
       <r>   -12.3722     1.5749    28.3504 </r>
       <r>   -12.2801     7.9627    29.0835 </r>
       <r>   -12.1881     8.6963    29.8840 </r>
       <r>   -12.0960     2.9986    30.1601 </r>
       <r>   -12.0040     0.0424    30.1640 </r>
       <r>   -11.9119     1.8748    30.3366 </r>
       <r>   -11.8198     3.4136    30.6508 </r>
       <r>   -11.7278     3.6573    30.9875 </r>
       <r>   -11.6357     6.5035    31.5862 </r>
       <r>   -11.5437     0.5045    31.6326 </r>
       <r>   -11.4516     0.2203    31.6529 </r>
       <r>   -11.3596     6.4755    32.2490 </r>
       <r>   -11.2675     6.0412    32.8052 </r>
       <r>   -11.1754     3.3870    33.1170 </r>
       <r>   -11.0834     5.5883    33.6314 </r>
       <r>   -10.9913     4.6721    34.0615 </r>
       <r>   -10.8993     2.8462    34.3235 </r>
       <r>   -10.8072     0.0327    34.3265 </r>
       <r>   -10.7152     0.0023    34.3267 </r>
       <r>   -10.6231     1.4164    34.4571 </r>
       <r>   -10.5310    11.0599    35.4753 </r>
       <r>   -10.4390    10.7653    36.4663 </r>
       <r>   -10.3469     2.7468    36.7192 </r>
       <r>   -10.2549     5.9619    37.2680 </r>
       <r>   -10.1628     2.0376    37.4556 </r>
       <r>   -10.0707     4.2396    37.8459 </r>
       <r>    -9.9787     4.9987    38.3060 </r>
       <r>    -9.8866    10.8153    39.3017 </r>
       <r>    -9.7946    10.0477    40.2266 </r>
       <r>    -9.7025     6.1758    40.7952 </r>
       <r>    -9.6105     8.8708    41.6118 </r>
       <r>    -9.5184     8.7530    42.4176 </r>
       <r>    -9.4263     5.5694    42.9303 </r>
       <r>    -9.3343     3.7223    43.2729 </r>
       <r>    -9.2422    10.4699    44.2368 </r>
       <r>    -9.1502    11.8598    45.3286 </r>
       <r>    -9.0581    15.0223    46.7115 </r>
       <r>    -8.9661     6.7404    47.3320 </r>
       <r>    -8.8740     2.8788    47.5970 </r>
       <r>    -8.7819    12.7062    48.7667 </r>
       <r>    -8.6899     6.7635    49.3893 </r>
       <r>    -8.5978     7.3882    50.0695 </r>
       <r>    -8.5058     7.1542    50.7281 </r>
       <r>    -8.4137     8.0084    51.4653 </r>
       <r>    -8.3217     3.3326    51.7721 </r>
       <r>    -8.2296     4.0709    52.1468 </r>
       <r>    -8.1375     5.4417    52.6478 </r>
       <r>    -8.0455    13.9623    53.9331 </r>
       <r>    -7.9534     5.1354    54.4059 </r>
       <r>    -7.8614     5.0170    54.8677 </r>
       <r>    -7.7693     1.1276    54.9715 </r>
       <r>    -7.6773     8.4987    55.7539 </r>
       <r>    -7.5852     6.9522    56.3939 </r>
       <r>    -7.4931     5.1933    56.8720 </r>
       <r>    -7.4011     2.8583    57.1351 </r>
       <r>    -7.3090     7.4134    57.8176 </r>
       <r>    -7.2170     2.1968    58.0198 </r>
       <r>    -7.1249    10.1021    58.9498 </r>
       <r>    -7.0328     7.9305    59.6799 </r>
       <r>    -6.9408     3.3212    59.9856 </r>
       <r>    -6.8487     3.6068    60.3176 </r>
       <r>    -6.7567     0.1336    60.3299 </r>
       <r>    -6.6646     4.2851    60.7244 </r>
       <r>    -6.5726    10.5688    61.6973 </r>
       <r>    -6.4805     8.8711    62.5140 </r>
       <r>    -6.3884     4.1022    62.8916 </r>
       <r>    -6.2964     4.0317    63.2628 </r>
       <r>    -6.2043     1.7902    63.4276 </r>
       <r>    -6.1123     4.9677    63.8849 </r>
       <r>    -6.0202     4.7435    64.3216 </r>
       <r>    -5.9282     2.8998    64.5885 </r>
       <r>    -5.8361     7.9456    65.3200 </r>
       <r>    -5.7440     7.1467    65.9779 </r>
       <r>    -5.6520     3.4449    66.2950 </r>
       <r>    -5.5599     3.7746    66.6425 </r>
       <r>    -5.4679     1.4940    66.7800 </r>
       <r>    -5.3758     3.1828    67.0730 </r>
       <r>    -5.2838     2.0983    67.2662 </r>
       <r>    -5.1917     1.5113    67.4053 </r>
       <r>    -5.0996     3.2043    67.7003 </r>
       <r>    -5.0076    15.6827    69.1440 </r>
       <r>    -4.9155     6.1479    69.7100 </r>
       <r>    -4.8235     0.0470    69.7143 </r>
       <r>    -4.7314     0.1311    69.7264 </r>
       <r>    -4.6394     2.0755    69.9174 </r>
       <r>    -4.5473     0.4563    69.9594 </r>
       <r>    -4.4552     1.3975    70.0881 </r>
       <r>    -4.3632     3.9785    70.4543 </r>
       <r>    -4.2711     5.0548    70.9197 </r>
       <r>    -4.1791     2.8315    71.1803 </r>
       <r>    -4.0870     0.0363    71.1837 </r>
       <r>    -3.9949     0.0091    71.1845 </r>
       <r>    -3.9029     1.2155    71.2964 </r>
       <r>    -3.8108     1.4193    71.4271 </r>
       <r>    -3.7188     0.0163    71.4286 </r>
       <r>    -3.6267     0.0124    71.4297 </r>
       <r>    -3.5347     2.1701    71.6295 </r>
       <r>    -3.4426     3.0916    71.9141 </r>
       <r>    -3.3505     0.0465    71.9184 </r>
       <r>    -3.2585     0.0000    71.9184 </r>
       <r>    -3.1664     0.0000    71.9184 </r>
       <r>    -3.0744     0.0000    71.9184 </r>
       <r>    -2.9823     0.0000    71.9184 </r>
       <r>    -2.8903     0.0001    71.9184 </r>
       <r>    -2.7982     0.1993    71.9367 </r>
       <r>    -2.7061     1.4282    72.0682 </r>
       <r>    -2.6141     0.1458    72.0816 </r>
       <r>    -2.5220     0.0001    72.0816 </r>
       <r>    -2.4300     0.0000    72.0816 </r>
       <r>    -2.3379     0.0000    72.0816 </r>
       <r>    -2.2459     0.0000    72.0816 </r>
       <r>    -2.1538     0.0001    72.0816 </r>
       <r>    -2.0617     0.2832    72.1077 </r>
       <r>    -1.9697     4.1797    72.4925 </r>
       <r>    -1.8776     0.8567    72.5713 </r>
       <r>    -1.7856     0.0458    72.5756 </r>
       <r>    -1.6935     1.7765    72.7391 </r>
       <r>    -1.6015     0.8362    72.8161 </r>
       <r>    -1.5094     0.0027    72.8163 </r>
       <r>    -1.4173     0.0021    72.8165 </r>
       <r>    -1.3253     1.8467    72.9865 </r>
       <r>    -1.2332    11.5114    74.0462 </r>
       <r>    -1.1412     2.7729    74.3015 </r>
       <r>    -1.0491     3.4836    74.6222 </r>
       <r>    -0.9570     5.8900    75.1644 </r>
       <r>    -0.8650     1.7247    75.3232 </r>
       <r>    -0.7729     4.3154    75.7204 </r>
       <r>    -0.6809     3.3162    76.0257 </r>
       <r>    -0.5888     4.7864    76.4663 </r>
       <r>    -0.4968     2.9937    76.7419 </r>
       <r>    -0.4047     3.7422    77.0864 </r>
       <r>    -0.3126     3.3712    77.3968 </r>
       <r>    -0.2206     5.2084    77.8763 </r>
       <r>    -0.1285     0.8982    77.9589 </r>
       <r>    -0.0365     0.0029    77.9592 </r>
       <r>     0.0556     0.5106    78.0062 </r>
       <r>     0.1476     4.2950    78.4016 </r>
       <r>     0.2397     1.4404    78.5342 </r>
       <r>     0.3318     4.2093    78.9217 </r>
       <r>     0.4238     3.6369    79.2565 </r>
       <r>     0.5159     3.0767    79.5397 </r>
       <r>     0.6079     3.6475    79.8755 </r>
       <r>     0.7000     1.3249    79.9975 </r>
       <r>     0.7920     5.8380    80.5349 </r>
       <r>     0.8841     5.9200    81.0799 </r>
       <r>     0.9762     1.4952    81.2175 </r>
       <r>     1.0682     4.2682    81.6105 </r>
       <r>     1.1603     1.8101    81.7771 </r>
       <r>     1.2523     5.7074    82.3025 </r>
       <r>     1.3444     2.0748    82.4935 </r>
       <r>     1.4364     6.8167    83.1210 </r>
       <r>     1.5285    14.1956    84.4279 </r>
       <r>     1.6206     4.4327    84.8359 </r>
       <r>     1.7126     4.6342    85.2625 </r>
       <r>     1.8047     3.3597    85.5718 </r>
       <r>     1.8967     8.7558    86.3779 </r>
       <r>     1.9888     8.8953    87.1967 </r>
       <r>     2.0809     9.2632    88.0495 </r>
       <r>     2.1729     6.8241    88.6777 </r>
       <r>     2.2650     6.9814    89.3204 </r>
       <r>     2.3570     7.4281    90.0042 </r>
       <r>     2.4491     5.7796    90.5363 </r>
       <r>     2.5411     4.5903    90.9588 </r>
       <r>     2.6332     2.1102    91.1531 </r>
       <r>     2.7253     1.8167    91.3203 </r>
       <r>     2.8173     4.6940    91.7524 </r>
       <r>     2.9094     2.5592    91.9880 </r>
       <r>     3.0014     0.1300    92.0000 </r>
       <r>     3.0935     0.0000    92.0000 </r>
       <r>     3.1855     0.0000    92.0000 </r>
       <r>     3.2776     0.0000    92.0000 </r>
       <r>     3.3697     0.0000    92.0000 </r>
       <r>     3.4617     0.0000    92.0000 </r>
       <r>     3.5538     0.0000    92.0000 </r>
       <r>     3.6458     0.0000    92.0000 </r>
       <r>     3.7379     0.0000    92.0000 </r>
       <r>     3.8299     0.0000    92.0000 </r>
       <r>     3.9220     0.0000    92.0000 </r>
       <r>     4.0141     0.0000    92.0000 </r>
       <r>     4.1061     0.0000    92.0000 </r>
      </set>
     </set>
    </array>
   </total>
  </dos>
 </calculation>
 <structure name="finalpos" >
  <crystal>
   <varray name="basis" >
    <v>       7.40170591       0.00000000       0.00000000 </v>
    <v>      -3.70085295       6.41006527       0.00000000 </v>
    <v>       0.00000000       0.00000000      20.00000000 </v>
   </varray>
   <i name="volume">    948.90835877 </i>
   <varray name="rec_basis" >
    <v>       0.13510399       0.07800233       0.00000000 </v>
    <v>       0.00000000       0.15600465       0.00000000 </v>
    <v>       0.00000000       0.00000000       0.05000000 </v>
   </varray>
  </crystal>
  <varray name="positions" >
   <v>       0.00000000       0.00000000       0.49950000 </v>
   <v>       0.33333333       0.00000000       0.50000000 </v>
   <v>       0.66666667       0.00000000       0.50000000 </v>
   <v>       0.00000000       0.33333333       0.50000000 </v>
   <v>       0.33333333       0.33333333       0.50000000 </v>
   <v>       0.66666667       0.33333333       0.50000000 </v>
   <v>       0.00000000       0.66666667       0.50000000 </v>
   <v>       0.33333333       0.66666667       0.50000000 </v>
   <v>       0.66666667       0.66666667       0.50000000 </v>
   <v>       0.22222222       0.11111111       0.49950000 </v>
   <v>       0.55555556       0.11111111       0.50000000 </v>
   <v>       0.88888889       0.11111111       0.50000000 </v>
   <v>       0.22222222       0.44444444       0.50000000 </v>
   <v>       0.55555556       0.44444444       0.50000000 </v>
   <v>       0.88888889       0.44444444       0.50000000 </v>
   <v>       0.22222222       0.77777778       0.50000000 </v>
   <v>       0.55555556       0.77777778       0.50000000 </v>
   <v>       0.88888889       0.77777778       0.50000000 </v>
  </varray>
 </structure>
</modeling>
