<?xml version="1.0" encoding="ISO-8859-1"?>
<modeling>
 <generator>
  <i name="program" type="string">vasp </i>
  <i name="version" type="string">6.4.1  </i>
  <i name="subversion" type="string">05Apr23 (build Feb 12 2025 00:37:39) complex                          parallel </i>
  <i name="platform" type="string">LinuxIFC </i>
  <i name="date" type="string">2025 02 14 </i>
  <i name="time" type="string">06:31:54 </i>
 </generator>
 <incar>
  <i type="string" name="SYSTEM">SCF</i>
  <i type="int" name="ISTART">     0</i>
  <i type="int" name="ICHARG">     2</i>
  <i type="int" name="NELM">    60</i>
  <i type="int" name="NELMIN">     6</i>
  <i name="EDIFF">      0.00000100</i>
  <i name="EDIFFG">     -0.00000100</i>
  <i name="ENCUT">    600.00000000</i>
  <i type="string" name="LREAL">Auto</i>
  <i type="int" name="ISMEAR">     0</i>
  <i name="SIGMA">      0.05000000</i>
  <i type="logical" name="LWAVE"> F  </i>
  <i type="logical" name="LCHARG"> F  </i>
 </incar>
 <primitive_cell>
  <structure name="primitive_cell" >
   <crystal>
    <varray name="basis" >
     <v>       7.40170591       0.00000000       0.00000000 </v>
     <v>      -3.70085295       6.41006527       0.00000000 </v>
     <v>       0.00000000       0.00000000      20.00000000 </v>
    </varray>
    <i name="volume">    948.90835877 </i>
    <varray name="rec_basis" >
     <v>       0.13510399       0.07800233       0.00000000 </v>
     <v>       0.00000000       0.15600465       0.00000000 </v>
     <v>       0.00000000       0.00000000       0.05000000 </v>
    </varray>
   </crystal>
   <varray name="positions" >
    <v>       0.00000000       0.00000000       0.50050000 </v>
    <v>       0.33333333       0.00000000       0.50000000 </v>
    <v>       0.66666667       0.00000000       0.50000000 </v>
    <v>       1.00000000       0.33333333       0.50000000 </v>
    <v>       0.33333333       0.33333333       0.50000000 </v>
    <v>       0.66666667       0.33333333       0.50000000 </v>
    <v>       1.00000000       0.66666667       0.50000000 </v>
    <v>       0.33333333       0.66666667       0.50000000 </v>
    <v>       0.66666667       0.66666667       0.50000000 </v>
    <v>       0.22222222       0.11111111       0.49950000 </v>
    <v>       0.55555556       0.11111111       0.50000000 </v>
    <v>       0.88888889       0.11111111       0.50000000 </v>
    <v>       0.22222222       0.44444444       0.50000000 </v>
    <v>       0.55555556       0.44444444       0.50000000 </v>
    <v>       0.88888889       0.44444444       0.50000000 </v>
    <v>       0.22222222       0.77777778       0.50000000 </v>
    <v>       0.55555556       0.77777778       0.50000000 </v>
    <v>       0.88888889       0.77777778       0.50000000 </v>
   </varray>
  </structure>
  <varray name="primitive_index" >
   <v type="int" >        1 </v>
   <v type="int" >        2 </v>
   <v type="int" >        3 </v>
   <v type="int" >        4 </v>
   <v type="int" >        5 </v>
   <v type="int" >        6 </v>
   <v type="int" >        7 </v>
   <v type="int" >        8 </v>
   <v type="int" >        9 </v>
   <v type="int" >       10 </v>
   <v type="int" >       11 </v>
   <v type="int" >       12 </v>
   <v type="int" >       13 </v>
   <v type="int" >       14 </v>
   <v type="int" >       15 </v>
   <v type="int" >       16 </v>
   <v type="int" >       17 </v>
   <v type="int" >       18 </v>
  </varray>
 </primitive_cell>
 <kpoints>
  <generation param="Gamma">
   <v type="int" name="divisions">       7        7        1 </v>
   <v name="usershift">      0.00000000       0.00000000       0.00000000 </v>
   <v name="genvec1">      0.14285714       0.00000000       0.00000000 </v>
   <v name="genvec2">      0.00000000       0.14285714       0.00000000 </v>
   <v name="genvec3">      0.00000000       0.00000000       1.00000000 </v>
   <v name="shift">      0.00000000       0.00000000       0.00000000 </v>
  </generation>
  <varray name="kpointlist" >
   <v>       0.00000000       0.00000000       0.00000000 </v>
   <v>       0.14285714       0.00000000       0.00000000 </v>
   <v>       0.00000000       0.14285714       0.00000000 </v>
   <v>       0.28571429       0.00000000       0.00000000 </v>
   <v>       0.00000000       0.28571429       0.00000000 </v>
   <v>       0.42857143       0.00000000       0.00000000 </v>
   <v>       0.00000000       0.42857143       0.00000000 </v>
   <v>       0.14285714       0.14285714       0.00000000 </v>
   <v>      -0.14285714       0.28571429       0.00000000 </v>
   <v>       0.28571429       0.14285714       0.00000000 </v>
   <v>      -0.14285714       0.42857143       0.00000000 </v>
   <v>      -0.42857143       0.28571429       0.00000000 </v>
   <v>       0.42857143       0.14285714       0.00000000 </v>
   <v>      -0.14285714      -0.42857143       0.00000000 </v>
   <v>       0.28571429       0.28571429       0.00000000 </v>
   <v>      -0.28571429      -0.42857143       0.00000000 </v>
  </varray>
  <varray name="weights" >
   <v>       0.02040816 </v>
   <v>       0.04081633 </v>
   <v>       0.08163265 </v>
   <v>       0.04081633 </v>
   <v>       0.08163265 </v>
   <v>       0.04081633 </v>
   <v>       0.08163265 </v>
   <v>       0.08163265 </v>
   <v>       0.04081633 </v>
   <v>       0.08163265 </v>
   <v>       0.08163265 </v>
   <v>       0.08163265 </v>
   <v>       0.04081633 </v>
   <v>       0.08163265 </v>
   <v>       0.08163265 </v>
   <v>       0.04081633 </v>
  </varray>
 </kpoints>
 <parameters>
  <separator name="general" >
   <i type="string" name="SYSTEM">SCF</i>
   <i type="logical" name="LCOMPAT"> F  </i>
  </separator>
  <separator name="electronic" >
   <i type="string" name="PREC">normal</i>
   <i name="ENMAX">    600.00000000</i>
   <i name="ENAUG">    644.87300000</i>
   <i name="EDIFF">      0.00000100</i>
   <i type="int" name="IALGO">    38</i>
   <i type="int" name="IWAVPR">    10</i>
   <i type="int" name="NBANDS">    46</i>
   <i type="int" name="NBANDSLOW">    -1</i>
   <i type="int" name="NBANDSHIGH">    -1</i>
   <i name="NELECT">     72.00000000</i>
   <i type="int" name="TURBO">     0</i>
   <i type="int" name="IRESTART">     0</i>
   <i type="int" name="NREBOOT">     0</i>
   <i type="int" name="NMIN">     0</i>
   <i name="EREF">      0.00000000</i>
   <separator name="electronic smearing" >
    <i type="int" name="ISMEAR">     0</i>
    <i name="SIGMA">      0.05000000</i>
    <i name="KSPACING">      0.50000000</i>
    <i type="logical" name="KGAMMA"> T  </i>
    <i type="logical" name="KBLOWUP"> T  </i>
   </separator>
   <separator name="electronic projectors" >
    <i type="logical" name="LREAL"> T  </i>
    <v name="ROPT">     -0.00050000</v>
    <i type="int" name="LMAXPAW">  -100</i>
    <i type="int" name="LMAXMIX">     2</i>
    <i type="logical" name="NLSPLINE"> F  </i>
   </separator>
   <separator name="electronic startup" >
    <i type="int" name="ISTART">     0</i>
    <i type="int" name="ICHARG">     2</i>
    <i type="int" name="INIWAV">     1</i>
   </separator>
   <separator name="electronic spin" >
    <i type="int" name="ISPIN">     1</i>
    <i type="logical" name="LNONCOLLINEAR"> F  </i>
    <v name="MAGMOM">      1.00000000      1.00000000      1.00000000      1.00000000      1.00000000      1.00000000      1.00000000      1.00000000      1.00000000      1.00000000      1.00000000      1.00000000      1.00000000      1.00000000      1.00000000      1.00000000      1.00000000      1.00000000</v>
    <i name="NUPDOWN">     -1.00000000</i>
    <i type="logical" name="LSORBIT"> F  </i>
    <v name="SAXIS">      0.00000000      0.00000000      1.00000000</v>
    <i type="logical" name="LSPIRAL"> F  </i>
    <v name="QSPIRAL">      0.00000000      0.00000000      0.00000000</v>
    <i type="logical" name="LZEROZ"> F  </i>
   </separator>
   <separator name="electronic exchange-correlation" >
    <i type="logical" name="LASPH"> F  </i>
    <i type="logical" name="LMETAGGA"> F  </i>
   </separator>
   <separator name="electronic convergence" >
    <i type="int" name="NELM">    60</i>
    <i type="int" name="NELMDL">    -5</i>
    <i type="int" name="NELMIN">     6</i>
    <i name="ENINI">    600.00000000</i>
    <separator name="electronic convergence detail" >
     <i type="logical" name="LDIAG"> T  </i>
     <i type="logical" name="LSUBROT"> F  </i>
     <i name="WEIMIN">      0.00000000</i>
     <i name="EBREAK">      0.00000000</i>
     <i name="DEPER">      0.30000000</i>
     <i type="int" name="NRMM">     4</i>
     <i name="TIME">      0.40000000</i>
    </separator>
   </separator>
   <separator name="electronic mixer" >
    <i name="AMIX">      0.40000000</i>
    <i name="BMIX">      1.00000000</i>
    <i name="AMIN">      0.10000000</i>
    <i name="AMIX_MAG">      1.60000000</i>
    <i name="BMIX_MAG">      1.00000000</i>
    <separator name="electronic mixer details" >
     <i type="int" name="IMIX">     4</i>
     <i type="logical" name="MIXFIRST"> F  </i>
     <i type="int" name="MAXMIX">   -45</i>
     <i name="WC">    100.00000000</i>
     <i type="int" name="INIMIX">     1</i>
     <i type="int" name="MIXPRE">     1</i>
     <i type="int" name="MREMOVE">     5</i>
    </separator>
   </separator>
   <separator name="electronic dipolcorrection" >
    <i type="logical" name="LDIPOL"> F  </i>
    <i type="logical" name="LMONO"> F  </i>
    <i type="int" name="IDIPOL">     0</i>
    <i name="EPSILON">      1.00000000</i>
    <v name="DIPOL">   -100.00000000   -100.00000000   -100.00000000</v>
    <i name="EFIELD">      0.00000000</i>
   </separator>
  </separator>
  <separator name="grids" >
   <i type="int" name="NGX">    48</i>
   <i type="int" name="NGY">    48</i>
   <i type="int" name="NGZ">   120</i>
   <i type="int" name="NGXF">    96</i>
   <i type="int" name="NGYF">    96</i>
   <i type="int" name="NGZF">   240</i>
   <i type="logical" name="ADDGRID"> F  </i>
  </separator>
  <separator name="ionic" >
   <i type="int" name="NSW">     0</i>
   <i type="int" name="IBRION">    -1</i>
   <i type="int" name="MDALGO">     0</i>
   <i type="int" name="ISIF">     2</i>
   <i name="PSTRESS">      0.00000000</i>
   <i name="EDIFFG">     -0.00000100</i>
   <i type="int" name="NFREE">     0</i>
   <i name="POTIM">      0.50000000</i>
   <i name="SMASS">     -3.00000000</i>
   <i name="SCALEE">      1.00000000</i>
  </separator>
  <separator name="ionic md" >
   <i name="TEBEG">      0.00010000</i>
   <i name="TEEND">      0.00010000</i>
   <i type="int" name="NBLOCK">     1</i>
   <i type="int" name="KBLOCK">     1</i>
   <i type="int" name="NPACO">   256</i>
   <i name="APACO">     10.00000000</i>
  </separator>
  <separator name="symmetry" >
   <i type="int" name="ISYM">     2</i>
   <i name="SYMPREC">      0.00001000</i>
  </separator>
  <separator name="dos" >
   <i type="int" name="LORBIT">     0</i>
   <v name="RWIGS">     -1.00000000</v>
   <i type="int" name="NEDOS">   301</i>
   <i name="EMIN">     10.00000000</i>
   <i name="EMAX">    -10.00000000</i>
   <i name="EFERMI">      0.00000000</i>
  </separator>
  <separator name="writing" >
   <i type="int" name="NWRITE">     2</i>
   <i type="logical" name="LWAVE"> F  </i>
   <i type="logical" name="LDOWNSAMPLE"> F  </i>
   <i type="logical" name="LCHARG"> F  </i>
   <i type="logical" name="LPARD"> F  </i>
   <i type="logical" name="LVTOT"> F  </i>
   <i type="logical" name="LVHAR"> F  </i>
   <i type="logical" name="LELF"> F  </i>
   <i type="logical" name="LOPTICS"> F  </i>
   <v name="STM">      0.00000000      0.00000000      0.00000000      0.00000000      0.00000000      0.00000000      0.00000000</v>
  </separator>
  <separator name="performance" >
   <i type="int" name="NPAR">     2</i>
   <i type="int" name="NSIM">     4</i>
   <i type="int" name="NBLK">    -1</i>
   <i type="logical" name="LPLANE"> T  </i>
   <i type="logical" name="LSCALAPACK"> T  </i>
   <i type="logical" name="LSCAAWARE"> F  </i>
   <i type="logical" name="LSCALU"> F  </i>
   <i type="logical" name="LASYNC"> F  </i>
   <i type="logical" name="LORBITALREAL"> F  </i>
  </separator>
  <separator name="miscellaneous" >
   <i type="int" name="IDIOT">     3</i>
   <i type="int" name="PHON_NSTRUCT">    -1</i>
   <i type="logical" name="LMUSIC"> F  </i>
   <v name="POMASS">     12.01100000</v>
   <v name="DARWINR">      0.00000000</v>
   <v name="DARWINV">      1.00000000</v>
   <i type="logical" name="LCORR"> T  </i>
  </separator>
  <i type="logical" name="GGA_COMPAT"> T  </i>
  <i type="logical" name="LBERRY"> F  </i>
  <i type="int" name="ICORELEVEL">     0</i>
  <i type="logical" name="LDAU"> F  </i>
  <i type="int" name="I_CONSTRAINED_M">     0</i>
  <separator name="electronic exchange-correlation" >
   <i type="string" name="GGA">--</i>
   <i type="int" name="VOSKOWN">     0</i>
   <i type="logical" name="LHFCALC"> F  </i>
   <i type="string" name="PRECFOCK"></i>
   <i type="logical" name="LSYMGRAD"> F  </i>
   <i type="logical" name="LHFONE"> F  </i>
   <i type="logical" name="LRHFCALC"> F  </i>
   <i type="logical" name="LTHOMAS"> F  </i>
   <i type="logical" name="LMODELHF"> F  </i>
   <i type="logical" name="LFOCKACE"> F  </i>
   <i name="ENCUT4O">     -1.00000000</i>
   <i type="int" name="EXXOEP">     0</i>
   <i type="int" name="FOURORBIT">     0</i>
   <i name="AEXX">      0.00000000</i>
   <i name="HFALPHA">      0.00000000</i>
   <i name="MCALPHA">      0.00000000</i>
   <i name="ALDAX">      1.00000000</i>
   <i name="AGGAX">      1.00000000</i>
   <i name="ALDAC">      1.00000000</i>
   <i name="AGGAC">      1.00000000</i>
   <i type="int" name="NKREDX">     1</i>
   <i type="int" name="NKREDY">     1</i>
   <i type="int" name="NKREDZ">     1</i>
   <i type="logical" name="SHIFTRED"> F  </i>
   <i type="logical" name="ODDONLY"> F  </i>
   <i type="logical" name="EVENONLY"> F  </i>
   <i type="int" name="LMAXFOCK">     0</i>
   <i type="int" name="NMAXFOCKAE">     0</i>
   <i type="logical" name="LFOCKAEDFT"> F  </i>
   <i name="HFSCREEN">      0.00000000</i>
   <i name="HFSCREENC">      0.00000000</i>
   <i type="int" name="NBANDSGWLOW">     0</i>
  </separator>
  <separator name="vdW DFT" >
   <i type="logical" name="LUSE_VDW"> F  </i>
   <i type="int" name="IVDW_NL">     1</i>
   <i type="logical" name="LSPIN_VDW"> F  </i>
   <i name="Zab_VDW">     -0.84910000</i>
   <i name="PARAM1">      0.12340000</i>
   <i name="PARAM2">      1.00000000</i>
   <i name="PARAM3">      0.00000000</i>
  </separator>
  <separator name="model GW" >
   <i type="int" name="MODEL_GW">     0</i>
   <i name="MODEL_EPS0">     31.63027863</i>
   <i name="MODEL_ALPHA">      1.00000000</i>
  </separator>
  <separator name="linear response parameters" >
   <i type="logical" name="LEPSILON"> F  </i>
   <i type="logical" name="LRPA"> F  </i>
   <i type="logical" name="LNABLA"> F  </i>
   <i type="logical" name="LVEL"> F  </i>
   <i name="CSHIFT">      0.10000000</i>
   <i name="OMEGAMAX">     -1.00000000</i>
   <i name="DEG_THRESHOLD">      0.00200000</i>
   <i name="RTIME">     -0.10000000</i>
   <i name="WPLASMAI">      0.00000000</i>
   <v name="DFIELD">      0.00000000      0.00000000      0.00000000</v>
   <v name="WPLASMA">      0.00000000      0.00000000      0.00000000      0.00000000      0.00000000      0.00000000      0.00000000      0.00000000      0.00000000</v>
  </separator>
  <separator name="orbital magnetization" >
   <i type="logical" name="NUCIND"> F  </i>
   <v name="MAGPOS">      0.00000000      0.00000000      0.00000000</v>
   <i type="logical" name="LNICSALL"> T  </i>
   <i type="logical" name="ORBITALMAG"> F  </i>
   <i type="logical" name="LMAGBLOCH"> F  </i>
   <i type="logical" name="LCHIMAG"> F  </i>
   <i type="logical" name="LGAUGE"> T  </i>
   <i type="int" name="MAGATOM">     0</i>
   <v name="MAGDIPOL">      0.00000000      0.00000000      0.00000000</v>
   <v name="AVECCONST">      0.00000000      0.00000000      0.00000000</v>
  </separator>
  <separator name="response functions" >
   <i type="logical" name="LALL_IN_ONE"> F  </i>
   <i type="int" name="IALL_IN_ONE">    -1</i>
   <i type="int" name="NBANDS_WAVE">    -1</i>
   <i type="logical" name="LFINITE_TEMPERATURE"> F  </i>
   <i type="logical" name="LADDER"> F  </i>
   <i type="logical" name="LRPAFORCE"> F  </i>
   <i type="logical" name="LFXC"> F  </i>
   <i type="logical" name="LHARTREE"> T  </i>
   <i type="int" name="IBSE">     0</i>
   <v type="int" name="KPOINT">    -1     0     0     0</v>
   <i type="logical" name="LTCTC"> F  </i>
   <i type="logical" name="LTCTE"> F  </i>
   <i type="logical" name="LTETE"> F  </i>
   <i type="logical" name="LTRIPLET"> F  </i>
   <i type="logical" name="LFXCEPS"> F  </i>
   <i type="logical" name="LFXHEG"> F  </i>
   <i type="int" name="NATURALO">     2</i>
   <i type="logical" name="LHOLEGF"> F  </i>
   <i type="logical" name="L2ORDER"> F  </i>
   <i type="logical" name="LDMP1"> F  </i>
   <i type="logical" name="LMP2LT"> F  </i>
   <i type="logical" name="LSMP2LT"> F  </i>
   <i type="logical" name="LGWLF"> F  </i>
   <i name="ENCUTGW">     -1.60000002</i>
   <i name="ENCUTGWSOFT">     -1.60000002</i>
   <i name="ENCUTLF">     -1.00000000</i>
   <i type="logical" name="LESF_SPLINES"> F  </i>
   <i type="int" name="LMAXMP2">    -1</i>
   <i name="SCISSOR">      0.00000000</i>
   <i type="int" name="NOMEGA">     0</i>
   <i type="int" name="NOMEGAR">     0</i>
   <i type="int" name="NBANDSGW">    -1</i>
   <i type="int" name="NBANDSO">    -1</i>
   <i type="int" name="NBANDSV">    -1</i>
   <i type="int" name="NELMGW">     1</i>
   <i type="int" name="NELMHF">     1</i>
   <i type="int" name="DIM">     3</i>
   <i type="int" name="IESPILON">     4</i>
   <i type="int" name="ANTIRES">     0</i>
   <i name="OMEGAMAX">    -30.00000000</i>
   <i name="OMEGAMIN">    -30.00000000</i>
   <i name="OMEGATL">   -200.00000000</i>
   <i type="int" name="OMEGAGRID">     0</i>
   <i name="CSHIFT">     -0.10000000</i>
   <i type="logical" name="LSELFENERGY"> F  </i>
   <i type="logical" name="LSPECTRAL"> F  </i>
   <i type="logical" name="LSPECTRALGW"> F  </i>
   <i type="logical" name="LSINGLES"> F  </i>
   <i type="logical" name="LFERMIGW"> F  </i>
   <i type="logical" name="ODDONLYGW"> F  </i>
   <i type="logical" name="EVENONLYGW"> F  </i>
   <i type="int" name="NKREDLFX">     1</i>
   <i type="int" name="NKREDLFY">     1</i>
   <i type="int" name="NKREDLFZ">     1</i>
   <i type="int" name="MAXMEM">  2800</i>
   <i type="int" name="TELESCOPE">     0</i>
   <i type="int" name="NTAUPAR">    -1</i>
   <i type="int" name="NOMEGAPAR">    -1</i>
   <i name="DAMP_NEWTON">      0.80000001</i>
   <i name="LAMBDA">      1.00000000</i>
  </separator>
  <separator name="External order field" >
   <i name="OFIELD_KAPPA">      0.00000000</i>
   <v name="OFIELD_K">      0.00000000      0.00000000      0.00000000</v>
   <i name="OFIELD_Q6_NEAR">      0.00000000</i>
   <i name="OFIELD_Q6_FAR">      0.00000000</i>
   <i name="OFIELD_A">      0.00000000</i>
  </separator>
  <separator name="optional k-points parameters" >
   <i type="int" name="KPOINTS_OPT_MODE">     1</i>
   <i type="logical" name="LKPOINTS_OPT"> F  </i>
  </separator>
 </parameters>
 <atominfo>
  <atoms>      18 </atoms>
  <types>       1 </types>
  <array name="atoms" >
   <dimension dim="1">ion</dimension>
   <field type="string">element</field>
   <field type="int">atomtype</field>
   <set>
    <rc><c>C </c><c>   1</c></rc>
    <rc><c>C </c><c>   1</c></rc>
    <rc><c>C </c><c>   1</c></rc>
    <rc><c>C </c><c>   1</c></rc>
    <rc><c>C </c><c>   1</c></rc>
    <rc><c>C </c><c>   1</c></rc>
    <rc><c>C </c><c>   1</c></rc>
    <rc><c>C </c><c>   1</c></rc>
    <rc><c>C </c><c>   1</c></rc>
    <rc><c>C </c><c>   1</c></rc>
    <rc><c>C </c><c>   1</c></rc>
    <rc><c>C </c><c>   1</c></rc>
    <rc><c>C </c><c>   1</c></rc>
    <rc><c>C </c><c>   1</c></rc>
    <rc><c>C </c><c>   1</c></rc>
    <rc><c>C </c><c>   1</c></rc>
    <rc><c>C </c><c>   1</c></rc>
    <rc><c>C </c><c>   1</c></rc>
   </set>
  </array>
  <array name="atomtypes" >
   <dimension dim="1">type</dimension>
   <field type="int">atomspertype</field>
   <field type="string">element</field>
   <field>mass</field>
   <field>valence</field>
   <field type="string">pseudopotential</field>
   <set>
    <rc><c>  18</c><c>C </c><c>     12.01100000</c><c>      4.00000000</c><c>  PAW_PBE C 08Apr2002                   </c></rc>
   </set>
  </array>
 </atominfo>
 <structure name="initialpos" >
  <crystal>
   <varray name="basis" >
    <v>       7.40170591       0.00000000       0.00000000 </v>
    <v>      -3.70085295       6.41006527       0.00000000 </v>
    <v>       0.00000000       0.00000000      20.00000000 </v>
   </varray>
   <i name="volume">    948.90835877 </i>
   <varray name="rec_basis" >
    <v>       0.13510399       0.07800233       0.00000000 </v>
    <v>       0.00000000       0.15600465       0.00000000 </v>
    <v>       0.00000000       0.00000000       0.05000000 </v>
   </varray>
  </crystal>
  <varray name="positions" >
   <v>       0.00000000       0.00000000       0.50050000 </v>
   <v>       0.33333333       0.00000000       0.50000000 </v>
   <v>       0.66666667       0.00000000       0.50000000 </v>
   <v>       0.00000000       0.33333333       0.50000000 </v>
   <v>       0.33333333       0.33333333       0.50000000 </v>
   <v>       0.66666667       0.33333333       0.50000000 </v>
   <v>       0.00000000       0.66666667       0.50000000 </v>
   <v>       0.33333333       0.66666667       0.50000000 </v>
   <v>       0.66666667       0.66666667       0.50000000 </v>
   <v>       0.22222222       0.11111111       0.49950000 </v>
   <v>       0.55555556       0.11111111       0.50000000 </v>
   <v>       0.88888889       0.11111111       0.50000000 </v>
   <v>       0.22222222       0.44444444       0.50000000 </v>
   <v>       0.55555556       0.44444444       0.50000000 </v>
   <v>       0.88888889       0.44444444       0.50000000 </v>
   <v>       0.22222222       0.77777778       0.50000000 </v>
   <v>       0.55555556       0.77777778       0.50000000 </v>
   <v>       0.88888889       0.77777778       0.50000000 </v>
  </varray>
 </structure>
 <calculation>
  <scstep>
   <time name="dav">    3.78    3.90</time>
   <time name="total">    3.87    4.00</time>
   <energy>
    <i name="alphaZ">     28.04858418 </i>
    <i name="ewald">  11638.79600463 </i>
    <i name="hartreedc"> -13553.12871425 </i>
    <i name="XCdc">    237.17673374 </i>
    <i name="pawpsdc">   1953.39683484 </i>
    <i name="pawaedc">  -1963.64613940 </i>
    <i name="eentropy">     -0.01354847 </i>
    <i name="bandstr">   -251.07386309 </i>
    <i name="atom">   2648.70517965 </i>
    <i name="e_fr_energy">    738.26107185 </i>
    <i name="e_wo_entrp">    738.27462031 </i>
    <i name="e_0_energy">    738.26784608 </i>
   </energy>
  </scstep>
  <scstep>
   <time name="dav">    5.12    5.28</time>
   <time name="total">    5.12    5.28</time>
   <energy>
    <i name="e_fr_energy">    -24.78575176 </i>
    <i name="e_wo_entrp">    -24.78516121 </i>
    <i name="e_0_energy">    -24.78545649 </i>
   </energy>
  </scstep>
  <scstep>
   <time name="dav">    4.16    4.27</time>
   <time name="total">    4.16    4.27</time>
   <energy>
    <i name="e_fr_energy">   -172.42361420 </i>
    <i name="e_wo_entrp">   -172.42232837 </i>
    <i name="e_0_energy">   -172.42297129 </i>
   </energy>
  </scstep>
  <scstep>
   <time name="dav">    4.16    3.28</time>
   <time name="total">    4.16    3.28</time>
   <energy>
    <i name="e_fr_energy">   -177.35458770 </i>
    <i name="e_wo_entrp">   -177.35229371 </i>
    <i name="e_0_energy">   -177.35344070 </i>
   </energy>
  </scstep>
  <scstep>
   <time name="dav">    4.67    4.68</time>
   <time name="total">    4.84    4.86</time>
   <energy>
    <i name="e_fr_energy">   -177.48586093 </i>
    <i name="e_wo_entrp">   -177.48355812 </i>
    <i name="e_0_energy">   -177.48470953 </i>
   </energy>
  </scstep>
  <scstep>
   <time name="dav">    3.85    3.98</time>
   <time name="total">    4.12    4.26</time>
   <energy>
    <i name="e_fr_energy">   -169.32014428 </i>
    <i name="e_wo_entrp">   -169.31784146 </i>
    <i name="e_0_energy">   -169.31899287 </i>
   </energy>
  </scstep>
  <scstep>
   <time name="dav">    3.83    3.97</time>
   <time name="total">    4.09    4.24</time>
   <energy>
    <i name="e_fr_energy">   -166.15209711 </i>
    <i name="e_wo_entrp">   -166.14979430 </i>
    <i name="e_0_energy">   -166.15094571 </i>
   </energy>
  </scstep>
  <scstep>
   <time name="dav">    3.99    4.13</time>
   <time name="total">    4.24    4.39</time>
   <energy>
    <i name="e_fr_energy">   -166.08920687 </i>
    <i name="e_wo_entrp">   -166.08690407 </i>
    <i name="e_0_energy">   -166.08805547 </i>
   </energy>
  </scstep>
  <scstep>
   <time name="dav">    4.21    4.36</time>
   <time name="total">    4.47    4.63</time>
   <energy>
    <i name="e_fr_energy">   -166.07638954 </i>
    <i name="e_wo_entrp">   -166.07408674 </i>
    <i name="e_0_energy">   -166.07523814 </i>
   </energy>
  </scstep>
  <scstep>
   <time name="dav">    3.79    3.90</time>
   <time name="total">    4.05    4.17</time>
   <energy>
    <i name="e_fr_energy">   -166.05766776 </i>
    <i name="e_wo_entrp">   -166.05536495 </i>
    <i name="e_0_energy">   -166.05651636 </i>
   </energy>
  </scstep>
  <scstep>
   <time name="dav">    3.87    3.15</time>
   <time name="total">    4.13    3.41</time>
   <energy>
    <i name="e_fr_energy">   -166.06237342 </i>
    <i name="e_wo_entrp">   -166.06007061 </i>
    <i name="e_0_energy">   -166.06122202 </i>
   </energy>
  </scstep>
  <scstep>
   <time name="dav">    3.64    3.75</time>
   <time name="total">    3.90    4.01</time>
   <energy>
    <i name="e_fr_energy">   -166.06684490 </i>
    <i name="e_wo_entrp">   -166.06454209 </i>
    <i name="e_0_energy">   -166.06569350 </i>
   </energy>
  </scstep>
  <scstep>
   <time name="dav">    3.79    3.91</time>
   <time name="total">    4.05    4.18</time>
   <energy>
    <i name="e_fr_energy">   -166.07199206 </i>
    <i name="e_wo_entrp">   -166.06968925 </i>
    <i name="e_0_energy">   -166.07084065 </i>
   </energy>
  </scstep>
  <scstep>
   <time name="dav">    3.68    3.79</time>
   <time name="total">    3.93    4.06</time>
   <energy>
    <i name="e_fr_energy">   -166.07484367 </i>
    <i name="e_wo_entrp">   -166.07254086 </i>
    <i name="e_0_energy">   -166.07369227 </i>
   </energy>
  </scstep>
  <scstep>
   <time name="dav">    4.05    4.18</time>
   <time name="total">    4.32    4.45</time>
   <energy>
    <i name="e_fr_energy">   -166.07561525 </i>
    <i name="e_wo_entrp">   -166.07331244 </i>
    <i name="e_0_energy">   -166.07446384 </i>
   </energy>
  </scstep>
  <scstep>
   <time name="dav">    3.57    3.68</time>
   <time name="total">    3.84    3.95</time>
   <energy>
    <i name="e_fr_energy">   -166.07573800 </i>
    <i name="e_wo_entrp">   -166.07343520 </i>
    <i name="e_0_energy">   -166.07458660 </i>
   </energy>
  </scstep>
  <scstep>
   <time name="dav">    3.22    3.32</time>
   <time name="total">    3.49    3.59</time>
   <energy>
    <i name="e_fr_energy">   -166.07580679 </i>
    <i name="e_wo_entrp">   -166.07350399 </i>
    <i name="e_0_energy">   -166.07465539 </i>
   </energy>
  </scstep>
  <scstep>
   <time name="dav">    3.42    3.52</time>
   <time name="total">    3.68    3.80</time>
   <energy>
    <i name="e_fr_energy">   -166.07583491 </i>
    <i name="e_wo_entrp">   -166.07353210 </i>
    <i name="e_0_energy">   -166.07468350 </i>
   </energy>
  </scstep>
  <scstep>
   <time name="dav">    2.97    2.09</time>
   <time name="total">    3.23    2.36</time>
   <energy>
    <i name="e_fr_energy">   -166.07585827 </i>
    <i name="e_wo_entrp">   -166.07355546 </i>
    <i name="e_0_energy">   -166.07470687 </i>
   </energy>
  </scstep>
  <scstep>
   <time name="dav">    2.73    2.81</time>
   <time name="total">    2.98    3.07</time>
   <energy>
    <i name="e_fr_energy">   -166.07586866 </i>
    <i name="e_wo_entrp">   -166.07356585 </i>
    <i name="e_0_energy">   -166.07471726 </i>
   </energy>
  </scstep>
  <scstep>
   <time name="dav">    2.66    2.74</time>
   <time name="total">    2.92    3.00</time>
   <energy>
    <i name="e_fr_energy">   -166.07587069 </i>
    <i name="e_wo_entrp">   -166.07356788 </i>
    <i name="e_0_energy">   -166.07471929 </i>
   </energy>
  </scstep>
  <scstep>
   <time name="dav">    2.61    2.69</time>
   <time name="total">    2.70    2.78</time>
   <energy>
    <i name="alphaZ">     28.04858418 </i>
    <i name="ewald">  11638.79600463 </i>
    <i name="hartreedc"> -13861.45502957 </i>
    <i name="XCdc">    247.81283906 </i>
    <i name="pawpsdc">   7452.52436310 </i>
    <i name="pawaedc">  -7464.78756536 </i>
    <i name="eentropy">     -0.00230281 </i>
    <i name="bandstr">   -855.71794404 </i>
    <i name="atom">   2648.70517965 </i>
    <i name="e_fr_energy">   -166.07587116 </i>
    <i name="e_wo_entrp">   -166.07356835 </i>
    <i name="e_0_energy">   -166.07471975 </i>
   </energy>
  </scstep>
  <structure>
   <crystal>
    <varray name="basis" >
     <v>       7.40170591       0.00000000       0.00000000 </v>
     <v>      -3.70085295       6.41006527       0.00000000 </v>
     <v>       0.00000000       0.00000000      20.00000000 </v>
    </varray>
    <i name="volume">    948.90835877 </i>
    <varray name="rec_basis" >
     <v>       0.13510399       0.07800233       0.00000000 </v>
     <v>       0.00000000       0.15600465       0.00000000 </v>
     <v>       0.00000000       0.00000000       0.05000000 </v>
    </varray>
   </crystal>
   <varray name="positions" >
    <v>       0.00000000       0.00000000       0.50050000 </v>
    <v>       0.33333333       0.00000000       0.50000000 </v>
    <v>       0.66666667       0.00000000       0.50000000 </v>
    <v>       0.00000000       0.33333333       0.50000000 </v>
    <v>       0.33333333       0.33333333       0.50000000 </v>
    <v>       0.66666667       0.33333333       0.50000000 </v>
    <v>       0.00000000       0.66666667       0.50000000 </v>
    <v>       0.33333333       0.66666667       0.50000000 </v>
    <v>       0.66666667       0.66666667       0.50000000 </v>
    <v>       0.22222222       0.11111111       0.49950000 </v>
    <v>       0.55555556       0.11111111       0.50000000 </v>
    <v>       0.88888889       0.11111111       0.50000000 </v>
    <v>       0.22222222       0.44444444       0.50000000 </v>
    <v>       0.55555556       0.44444444       0.50000000 </v>
    <v>       0.88888889       0.44444444       0.50000000 </v>
    <v>       0.22222222       0.77777778       0.50000000 </v>
    <v>       0.55555556       0.77777778       0.50000000 </v>
    <v>       0.88888889       0.77777778       0.50000000 </v>
   </varray>
  </structure>
  <varray name="forces" >
   <v>       0.00174628       0.00100822      -0.20431303 </v>
   <v>      -0.00045628       0.00049339      -0.06652110 </v>
   <v>      -0.00007719       0.00002309       0.00426757 </v>
   <v>      -0.00009014       0.00008754      -0.00820120 </v>
   <v>       0.00019915      -0.00064184      -0.06652110 </v>
   <v>      -0.00010386      -0.00005997      -0.00123364 </v>
   <v>       0.00003074      -0.00012183      -0.00820120 </v>
   <v>      -0.00009501      -0.00005485       0.01123577 </v>
   <v>      -0.00001860      -0.00007839       0.00426757 </v>
   <v>      -0.00174628      -0.00100822       0.20431303 </v>
   <v>       0.00007719      -0.00002309      -0.00426757 </v>
   <v>       0.00045628      -0.00049339       0.06652110 </v>
   <v>      -0.00003074       0.00012183       0.00820120 </v>
   <v>       0.00001860       0.00007839      -0.00426757 </v>
   <v>       0.00009501       0.00005485      -0.01123577 </v>
   <v>       0.00009014      -0.00008754       0.00820120 </v>
   <v>       0.00010386       0.00005997       0.00123364 </v>
   <v>      -0.00019915       0.00064184       0.06652110 </v>
  </varray>
  <varray name="stress" >
   <v>      -0.16779442      -0.00025383       0.00003609 </v>
   <v>      -0.00025383      -0.16750132       0.00002084 </v>
   <v>       0.00003609       0.00002083      -0.57487341 </v>
  </varray>
  <energy>
   <i name="e_fr_energy">   -166.07587116 </i>
   <i name="e_wo_entrp">   -166.07356835 </i>
   <i name="e_0_energy">   -166.07471975 </i>
  </energy>
  <time name="totalsc">   89.63   89.48</time>
  <eigenvalues>
   <array>
    <dimension dim="1">band</dimension>
    <dimension dim="2">kpoint</dimension>
    <dimension dim="3">spin</dimension>
    <field>eigene</field>
    <field>occ</field>
    <set>
     <set comment="spin 1">
      <set comment="kpoint 1">
       <r>  -22.2558    1.0000 </r>
       <r>  -19.6734    1.0000 </r>
       <r>  -19.6733    1.0000 </r>
       <r>  -19.6733    1.0000 </r>
       <r>  -19.6733    1.0000 </r>
       <r>  -19.6732    1.0000 </r>
       <r>  -19.6730    1.0000 </r>
       <r>  -15.3407    1.0000 </r>
       <r>  -15.3407    1.0000 </r>
       <r>  -15.3406    1.0000 </r>
       <r>  -15.3405    1.0000 </r>
       <r>  -13.2895    1.0000 </r>
       <r>  -13.2894    1.0000 </r>
       <r>  -12.3747    1.0000 </r>
       <r>  -12.3747    1.0000 </r>
       <r>  -12.3747    1.0000 </r>
       <r>  -12.3746    1.0000 </r>
       <r>  -12.3745    1.0000 </r>
       <r>  -12.3743    1.0000 </r>
       <r>  -10.3597    1.0000 </r>
       <r>   -8.5236    1.0000 </r>
       <r>   -8.5236    1.0000 </r>
       <r>   -8.5236    1.0000 </r>
       <r>   -8.5236    1.0000 </r>
       <r>   -8.5234    1.0000 </r>
       <r>   -8.5233    1.0000 </r>
       <r>   -7.3709    1.0000 </r>
       <r>   -7.3709    1.0000 </r>
       <r>   -7.3708    1.0000 </r>
       <r>   -7.3708    1.0000 </r>
       <r>   -7.3706    1.0000 </r>
       <r>   -7.3705    1.0000 </r>
       <r>   -5.7845    1.0000 </r>
       <r>   -5.7843    1.0000 </r>
       <r>   -2.7555    0.5015 </r>
       <r>   -2.7553    0.5002 </r>
       <r>   -2.7553    0.4994 </r>
       <r>   -2.7552    0.4989 </r>
       <r>    0.5194    0.0000 </r>
       <r>    1.3122    0.0000 </r>
       <r>    1.6358    0.0000 </r>
       <r>    2.1423    0.0000 </r>
       <r>    2.1437    0.0000 </r>
       <r>    2.1441    0.0000 </r>
       <r>    2.1442    0.0000 </r>
       <r>    2.1442    0.0000 </r>
      </set>
      <set comment="kpoint 2">
       <r>  -22.2022    1.0000 </r>
       <r>  -20.3488    1.0000 </r>
       <r>  -19.9842    1.0000 </r>
       <r>  -19.9840    1.0000 </r>
       <r>  -19.2624    1.0000 </r>
       <r>  -19.2623    1.0000 </r>
       <r>  -18.9061    1.0000 </r>
       <r>  -15.9952    1.0000 </r>
       <r>  -15.9951    1.0000 </r>
       <r>  -14.9131    1.0000 </r>
       <r>  -14.9131    1.0000 </r>
       <r>  -13.5974    1.0000 </r>
       <r>  -12.9701    1.0000 </r>
       <r>  -12.9701    1.0000 </r>
       <r>  -12.9562    1.0000 </r>
       <r>  -12.9561    1.0000 </r>
       <r>  -11.7351    1.0000 </r>
       <r>  -11.7350    1.0000 </r>
       <r>  -11.1176    1.0000 </r>
       <r>  -10.2958    1.0000 </r>
       <r>   -8.8634    1.0000 </r>
       <r>   -8.8633    1.0000 </r>
       <r>   -8.8291    1.0000 </r>
       <r>   -8.5096    1.0000 </r>
       <r>   -8.5095    1.0000 </r>
       <r>   -8.1320    1.0000 </r>
       <r>   -8.1266    1.0000 </r>
       <r>   -7.7133    1.0000 </r>
       <r>   -7.7132    1.0000 </r>
       <r>   -6.9228    1.0000 </r>
       <r>   -6.9227    1.0000 </r>
       <r>   -6.5571    1.0000 </r>
       <r>   -6.0044    1.0000 </r>
       <r>   -5.9002    1.0000 </r>
       <r>   -3.5267    1.0000 </r>
       <r>   -3.5266    1.0000 </r>
       <r>   -2.0048    0.0000 </r>
       <r>   -2.0046    0.0000 </r>
       <r>    0.5918    0.0000 </r>
       <r>    0.8748    0.0000 </r>
       <r>    1.3858    0.0000 </r>
       <r>    1.4732    0.0000 </r>
       <r>    1.4737    0.0000 </r>
       <r>    1.7104    0.0000 </r>
       <r>    2.6298    0.0000 </r>
       <r>    2.7595    0.0000 </r>
      </set>
      <set comment="kpoint 3">
       <r>  -22.2022    1.0000 </r>
       <r>  -20.3488    1.0000 </r>
       <r>  -19.9841    1.0000 </r>
       <r>  -19.9841    1.0000 </r>
       <r>  -19.2624    1.0000 </r>
       <r>  -19.2623    1.0000 </r>
       <r>  -18.9061    1.0000 </r>
       <r>  -15.9952    1.0000 </r>
       <r>  -15.9951    1.0000 </r>
       <r>  -14.9132    1.0000 </r>
       <r>  -14.9131    1.0000 </r>
       <r>  -13.5974    1.0000 </r>
       <r>  -12.9701    1.0000 </r>
       <r>  -12.9700    1.0000 </r>
       <r>  -12.9562    1.0000 </r>
       <r>  -12.9561    1.0000 </r>
       <r>  -11.7351    1.0000 </r>
       <r>  -11.7349    1.0000 </r>
       <r>  -11.1176    1.0000 </r>
       <r>  -10.2958    1.0000 </r>
       <r>   -8.8634    1.0000 </r>
       <r>   -8.8633    1.0000 </r>
       <r>   -8.8291    1.0000 </r>
       <r>   -8.5097    1.0000 </r>
       <r>   -8.5095    1.0000 </r>
       <r>   -8.1320    1.0000 </r>
       <r>   -8.1267    1.0000 </r>
       <r>   -7.7133    1.0000 </r>
       <r>   -7.7131    1.0000 </r>
       <r>   -6.9227    1.0000 </r>
       <r>   -6.9227    1.0000 </r>
       <r>   -6.5570    1.0000 </r>
       <r>   -6.0046    1.0000 </r>
       <r>   -5.9000    1.0000 </r>
       <r>   -3.5267    1.0000 </r>
       <r>   -3.5266    1.0000 </r>
       <r>   -2.0048    0.0000 </r>
       <r>   -2.0047    0.0000 </r>
       <r>    0.5917    0.0000 </r>
       <r>    0.8749    0.0000 </r>
       <r>    1.3858    0.0000 </r>
       <r>    1.4732    0.0000 </r>
       <r>    1.4736    0.0000 </r>
       <r>    1.7104    0.0000 </r>
       <r>    2.6298    0.0000 </r>
       <r>    2.7599    0.0000 </r>
      </set>
      <set comment="kpoint 4">
       <r>  -22.0417    1.0000 </r>
       <r>  -20.9265    1.0000 </r>
       <r>  -20.1926    1.0000 </r>
       <r>  -20.1925    1.0000 </r>
       <r>  -18.7553    1.0000 </r>
       <r>  -18.7551    1.0000 </r>
       <r>  -18.0629    1.0000 </r>
       <r>  -16.7452    1.0000 </r>
       <r>  -16.7450    1.0000 </r>
       <r>  -14.7529    1.0000 </r>
       <r>  -14.6243    1.0000 </r>
       <r>  -14.6243    1.0000 </r>
       <r>  -13.4993    1.0000 </r>
       <r>  -13.4993    1.0000 </r>
       <r>  -12.1838    1.0000 </r>
       <r>  -12.1836    1.0000 </r>
       <r>  -11.0980    1.0000 </r>
       <r>  -11.0979    1.0000 </r>
       <r>  -10.1047    1.0000 </r>
       <r>   -9.8598    1.0000 </r>
       <r>   -9.4951    1.0000 </r>
       <r>   -9.4950    1.0000 </r>
       <r>   -9.0380    1.0000 </r>
       <r>   -8.7936    1.0000 </r>
       <r>   -8.7612    1.0000 </r>
       <r>   -8.7588    1.0000 </r>
       <r>   -7.9450    1.0000 </r>
       <r>   -7.9445    1.0000 </r>
       <r>   -7.6710    1.0000 </r>
       <r>   -6.6226    1.0000 </r>
       <r>   -6.3780    1.0000 </r>
       <r>   -6.3772    1.0000 </r>
       <r>   -6.2164    1.0000 </r>
       <r>   -5.7648    1.0000 </r>
       <r>   -4.2990    1.0000 </r>
       <r>   -4.2990    1.0000 </r>
       <r>   -1.2831    0.0000 </r>
       <r>   -1.2828    0.0000 </r>
       <r>   -0.2382    0.0000 </r>
       <r>    0.7812    0.0000 </r>
       <r>    0.7877    0.0000 </r>
       <r>    0.8162    0.0000 </r>
       <r>    1.6065    0.0000 </r>
       <r>    1.9338    0.0000 </r>
       <r>    2.3339    0.0000 </r>
       <r>    2.8511    0.0000 </r>
      </set>
      <set comment="kpoint 5">
       <r>  -22.0417    1.0000 </r>
       <r>  -20.9265    1.0000 </r>
       <r>  -20.1926    1.0000 </r>
       <r>  -20.1925    1.0000 </r>
       <r>  -18.7553    1.0000 </r>
       <r>  -18.7552    1.0000 </r>
       <r>  -18.0628    1.0000 </r>
       <r>  -16.7451    1.0000 </r>
       <r>  -16.7450    1.0000 </r>
       <r>  -14.7530    1.0000 </r>
       <r>  -14.6244    1.0000 </r>
       <r>  -14.6243    1.0000 </r>
       <r>  -13.4994    1.0000 </r>
       <r>  -13.4992    1.0000 </r>
       <r>  -12.1837    1.0000 </r>
       <r>  -12.1836    1.0000 </r>
       <r>  -11.0980    1.0000 </r>
       <r>  -11.0978    1.0000 </r>
       <r>  -10.1046    1.0000 </r>
       <r>   -9.8599    1.0000 </r>
       <r>   -9.4951    1.0000 </r>
       <r>   -9.4950    1.0000 </r>
       <r>   -9.0380    1.0000 </r>
       <r>   -8.7939    1.0000 </r>
       <r>   -8.7611    1.0000 </r>
       <r>   -8.7588    1.0000 </r>
       <r>   -7.9450    1.0000 </r>
       <r>   -7.9446    1.0000 </r>
       <r>   -7.6709    1.0000 </r>
       <r>   -6.6226    1.0000 </r>
       <r>   -6.3780    1.0000 </r>
       <r>   -6.3773    1.0000 </r>
       <r>   -6.2162    1.0000 </r>
       <r>   -5.7648    1.0000 </r>
       <r>   -4.2990    1.0000 </r>
       <r>   -4.2989    1.0000 </r>
       <r>   -1.2830    0.0000 </r>
       <r>   -1.2828    0.0000 </r>
       <r>   -0.2383    0.0000 </r>
       <r>    0.7822    0.0000 </r>
       <r>    0.7876    0.0000 </r>
       <r>    0.8152    0.0000 </r>
       <r>    1.6065    0.0000 </r>
       <r>    1.9337    0.0000 </r>
       <r>    2.3340    0.0000 </r>
       <r>    2.8511    0.0000 </r>
      </set>
      <set comment="kpoint 6">
       <r>  -21.7748    1.0000 </r>
       <r>  -21.4026    1.0000 </r>
       <r>  -20.2972    1.0000 </r>
       <r>  -20.2971    1.0000 </r>
       <r>  -18.1581    1.0000 </r>
       <r>  -18.1580    1.0000 </r>
       <r>  -17.4813    1.0000 </r>
       <r>  -17.4812    1.0000 </r>
       <r>  -17.2288    1.0000 </r>
       <r>  -15.7455    1.0000 </r>
       <r>  -14.3221    1.0000 </r>
       <r>  -14.3220    1.0000 </r>
       <r>  -13.9510    1.0000 </r>
       <r>  -13.9509    1.0000 </r>
       <r>  -11.2586    1.0000 </r>
       <r>  -11.2584    1.0000 </r>
       <r>  -10.5973    1.0000 </r>
       <r>  -10.5971    1.0000 </r>
       <r>  -10.3278    1.0000 </r>
       <r>  -10.3276    1.0000 </r>
       <r>   -9.7876    1.0000 </r>
       <r>   -9.3484    1.0000 </r>
       <r>   -9.1438    1.0000 </r>
       <r>   -9.0903    1.0000 </r>
       <r>   -9.0898    1.0000 </r>
       <r>   -8.6461    1.0000 </r>
       <r>   -8.0612    1.0000 </r>
       <r>   -8.0610    1.0000 </r>
       <r>   -7.5383    1.0000 </r>
       <r>   -7.1686    1.0000 </r>
       <r>   -6.6645    1.0000 </r>
       <r>   -5.7469    1.0000 </r>
       <r>   -5.7469    1.0000 </r>
       <r>   -5.1980    1.0000 </r>
       <r>   -5.0472    1.0000 </r>
       <r>   -5.0472    1.0000 </r>
       <r>   -0.9702    0.0000 </r>
       <r>   -0.5852    0.0000 </r>
       <r>   -0.5848    0.0000 </r>
       <r>    0.1012    0.0000 </r>
       <r>    0.1018    0.0000 </r>
       <r>    1.1736    0.0000 </r>
       <r>    1.6816    0.0000 </r>
       <r>    1.9739    0.0000 </r>
       <r>    2.3061    0.0000 </r>
       <r>    2.4869    0.0000 </r>
      </set>
      <set comment="kpoint 7">
       <r>  -21.7748    1.0000 </r>
       <r>  -21.4026    1.0000 </r>
       <r>  -20.2972    1.0000 </r>
       <r>  -20.2971    1.0000 </r>
       <r>  -18.1581    1.0000 </r>
       <r>  -18.1580    1.0000 </r>
       <r>  -17.4813    1.0000 </r>
       <r>  -17.4812    1.0000 </r>
       <r>  -17.2288    1.0000 </r>
       <r>  -15.7456    1.0000 </r>
       <r>  -14.3221    1.0000 </r>
       <r>  -14.3220    1.0000 </r>
       <r>  -13.9510    1.0000 </r>
       <r>  -13.9509    1.0000 </r>
       <r>  -11.2585    1.0000 </r>
       <r>  -11.2584    1.0000 </r>
       <r>  -10.5972    1.0000 </r>
       <r>  -10.5970    1.0000 </r>
       <r>  -10.3277    1.0000 </r>
       <r>  -10.3277    1.0000 </r>
       <r>   -9.7876    1.0000 </r>
       <r>   -9.3484    1.0000 </r>
       <r>   -9.1439    1.0000 </r>
       <r>   -9.0903    1.0000 </r>
       <r>   -9.0900    1.0000 </r>
       <r>   -8.6461    1.0000 </r>
       <r>   -8.0612    1.0000 </r>
       <r>   -8.0610    1.0000 </r>
       <r>   -7.5383    1.0000 </r>
       <r>   -7.1686    1.0000 </r>
       <r>   -6.6644    1.0000 </r>
       <r>   -5.7469    1.0000 </r>
       <r>   -5.7468    1.0000 </r>
       <r>   -5.1980    1.0000 </r>
       <r>   -5.0472    1.0000 </r>
       <r>   -5.0472    1.0000 </r>
       <r>   -0.9703    0.0000 </r>
       <r>   -0.5851    0.0000 </r>
       <r>   -0.5849    0.0000 </r>
       <r>    0.1013    0.0000 </r>
       <r>    0.1017    0.0000 </r>
       <r>    1.1736    0.0000 </r>
       <r>    1.6817    0.0000 </r>
       <r>    1.9739    0.0000 </r>
       <r>    2.3061    0.0000 </r>
       <r>    2.4869    0.0000 </r>
      </set>
      <set comment="kpoint 8">
       <r>  -22.0952    1.0000 </r>
       <r>  -20.6109    1.0000 </r>
       <r>  -20.6108    1.0000 </r>
       <r>  -19.5193    1.0000 </r>
       <r>  -19.5192    1.0000 </r>
       <r>  -18.4549    1.0000 </r>
       <r>  -18.4547    1.0000 </r>
       <r>  -16.7786    1.0000 </r>
       <r>  -16.1616    1.0000 </r>
       <r>  -15.2403    1.0000 </r>
       <r>  -14.2549    1.0000 </r>
       <r>  -14.1585    1.0000 </r>
       <r>  -14.1584    1.0000 </r>
       <r>  -12.6045    1.0000 </r>
       <r>  -12.3071    1.0000 </r>
       <r>  -12.3070    1.0000 </r>
       <r>  -12.2710    1.0000 </r>
       <r>  -10.4864    1.0000 </r>
       <r>  -10.4864    1.0000 </r>
       <r>  -10.1680    1.0000 </r>
       <r>   -9.1765    1.0000 </r>
       <r>   -9.1763    1.0000 </r>
       <r>   -9.1236    1.0000 </r>
       <r>   -9.1235    1.0000 </r>
       <r>   -8.4261    1.0000 </r>
       <r>   -8.4258    1.0000 </r>
       <r>   -8.0745    1.0000 </r>
       <r>   -8.0745    1.0000 </r>
       <r>   -7.1908    1.0000 </r>
       <r>   -7.1906    1.0000 </r>
       <r>   -6.4087    1.0000 </r>
       <r>   -6.1327    1.0000 </r>
       <r>   -6.1040    1.0000 </r>
       <r>   -6.1033    1.0000 </r>
       <r>   -4.2578    1.0000 </r>
       <r>   -3.8994    1.0000 </r>
       <r>   -1.7106    0.0000 </r>
       <r>   -1.2653    0.0000 </r>
       <r>    0.2722    0.0000 </r>
       <r>    0.2730    0.0000 </r>
       <r>    0.7377    0.0000 </r>
       <r>    1.5330    0.0000 </r>
       <r>    1.8591    0.0000 </r>
       <r>    2.0109    0.0000 </r>
       <r>    2.0117    0.0000 </r>
       <r>    2.7773    0.0000 </r>
      </set>
      <set comment="kpoint 9">
       <r>  -22.0952    1.0000 </r>
       <r>  -20.6109    1.0000 </r>
       <r>  -20.6108    1.0000 </r>
       <r>  -19.5193    1.0000 </r>
       <r>  -19.5192    1.0000 </r>
       <r>  -18.4549    1.0000 </r>
       <r>  -18.4547    1.0000 </r>
       <r>  -16.7786    1.0000 </r>
       <r>  -16.1617    1.0000 </r>
       <r>  -15.2402    1.0000 </r>
       <r>  -14.2549    1.0000 </r>
       <r>  -14.1585    1.0000 </r>
       <r>  -14.1585    1.0000 </r>
       <r>  -12.6045    1.0000 </r>
       <r>  -12.3071    1.0000 </r>
       <r>  -12.3069    1.0000 </r>
       <r>  -12.2711    1.0000 </r>
       <r>  -10.4865    1.0000 </r>
       <r>  -10.4863    1.0000 </r>
       <r>  -10.1681    1.0000 </r>
       <r>   -9.1765    1.0000 </r>
       <r>   -9.1764    1.0000 </r>
       <r>   -9.1237    1.0000 </r>
       <r>   -9.1235    1.0000 </r>
       <r>   -8.4260    1.0000 </r>
       <r>   -8.4260    1.0000 </r>
       <r>   -8.0746    1.0000 </r>
       <r>   -8.0745    1.0000 </r>
       <r>   -7.1908    1.0000 </r>
       <r>   -7.1906    1.0000 </r>
       <r>   -6.4087    1.0000 </r>
       <r>   -6.1323    1.0000 </r>
       <r>   -6.1040    1.0000 </r>
       <r>   -6.1036    1.0000 </r>
       <r>   -4.2578    1.0000 </r>
       <r>   -3.8994    1.0000 </r>
       <r>   -1.7105    0.0000 </r>
       <r>   -1.2654    0.0000 </r>
       <r>    0.2721    0.0000 </r>
       <r>    0.2730    0.0000 </r>
       <r>    0.7378    0.0000 </r>
       <r>    1.5330    0.0000 </r>
       <r>    1.8592    0.0000 </r>
       <r>    2.0112    0.0000 </r>
       <r>    2.0113    0.0000 </r>
       <r>    2.7773    0.0000 </r>
      </set>
      <set comment="kpoint 10">
       <r>  -21.8815    1.0000 </r>
       <r>  -21.1377    1.0000 </r>
       <r>  -20.7686    1.0000 </r>
       <r>  -19.6743    1.0000 </r>
       <r>  -18.9579    1.0000 </r>
       <r>  -17.9165    1.0000 </r>
       <r>  -17.5934    1.0000 </r>
       <r>  -17.5729    1.0000 </r>
       <r>  -16.6711    1.0000 </r>
       <r>  -15.2536    1.0000 </r>
       <r>  -15.2500    1.0000 </r>
       <r>  -14.6348    1.0000 </r>
       <r>  -13.7272    1.0000 </r>
       <r>  -12.8210    1.0000 </r>
       <r>  -11.8986    1.0000 </r>
       <r>  -11.6826    1.0000 </r>
       <r>  -11.3887    1.0000 </r>
       <r>  -10.0394    1.0000 </r>
       <r>   -9.9202    1.0000 </r>
       <r>   -9.9104    1.0000 </r>
       <r>   -9.7107    1.0000 </r>
       <r>   -9.6301    1.0000 </r>
       <r>   -9.2824    1.0000 </r>
       <r>   -9.2644    1.0000 </r>
       <r>   -9.0373    1.0000 </r>
       <r>   -8.6067    1.0000 </r>
       <r>   -8.2587    1.0000 </r>
       <r>   -7.5790    1.0000 </r>
       <r>   -7.3539    1.0000 </r>
       <r>   -7.1427    1.0000 </r>
       <r>   -6.5696    1.0000 </r>
       <r>   -6.5446    1.0000 </r>
       <r>   -5.5814    1.0000 </r>
       <r>   -5.3854    1.0000 </r>
       <r>   -5.0742    1.0000 </r>
       <r>   -4.4328    1.0000 </r>
       <r>   -1.2967    0.0000 </r>
       <r>   -0.6854    0.0000 </r>
       <r>   -0.4251    0.0000 </r>
       <r>   -0.2986    0.0000 </r>
       <r>    1.0278    0.0000 </r>
       <r>    1.2243    0.0000 </r>
       <r>    1.8270    0.0000 </r>
       <r>    2.0444    0.0000 </r>
       <r>    2.1572    0.0000 </r>
       <r>    2.4021    0.0000 </r>
      </set>
      <set comment="kpoint 11">
       <r>  -21.8815    1.0000 </r>
       <r>  -21.1377    1.0000 </r>
       <r>  -20.7686    1.0000 </r>
       <r>  -19.6743    1.0000 </r>
       <r>  -18.9579    1.0000 </r>
       <r>  -17.9165    1.0000 </r>
       <r>  -17.5934    1.0000 </r>
       <r>  -17.5729    1.0000 </r>
       <r>  -16.6711    1.0000 </r>
       <r>  -15.2537    1.0000 </r>
       <r>  -15.2499    1.0000 </r>
       <r>  -14.6348    1.0000 </r>
       <r>  -13.7272    1.0000 </r>
       <r>  -12.8210    1.0000 </r>
       <r>  -11.8985    1.0000 </r>
       <r>  -11.6825    1.0000 </r>
       <r>  -11.3887    1.0000 </r>
       <r>  -10.0394    1.0000 </r>
       <r>   -9.9202    1.0000 </r>
       <r>   -9.9103    1.0000 </r>
       <r>   -9.7107    1.0000 </r>
       <r>   -9.6302    1.0000 </r>
       <r>   -9.2824    1.0000 </r>
       <r>   -9.2644    1.0000 </r>
       <r>   -9.0374    1.0000 </r>
       <r>   -8.6067    1.0000 </r>
       <r>   -8.2587    1.0000 </r>
       <r>   -7.5790    1.0000 </r>
       <r>   -7.3539    1.0000 </r>
       <r>   -7.1429    1.0000 </r>
       <r>   -6.5703    1.0000 </r>
       <r>   -6.5438    1.0000 </r>
       <r>   -5.5814    1.0000 </r>
       <r>   -5.3854    1.0000 </r>
       <r>   -5.0741    1.0000 </r>
       <r>   -4.4329    1.0000 </r>
       <r>   -1.2967    0.0000 </r>
       <r>   -0.6854    0.0000 </r>
       <r>   -0.4252    0.0000 </r>
       <r>   -0.2987    0.0000 </r>
       <r>    1.0280    0.0000 </r>
       <r>    1.2242    0.0000 </r>
       <r>    1.8271    0.0000 </r>
       <r>    2.0444    0.0000 </r>
       <r>    2.1572    0.0000 </r>
       <r>    2.4025    0.0000 </r>
      </set>
      <set comment="kpoint 12">
       <r>  -21.8815    1.0000 </r>
       <r>  -21.1377    1.0000 </r>
       <r>  -20.7686    1.0000 </r>
       <r>  -19.6743    1.0000 </r>
       <r>  -18.9579    1.0000 </r>
       <r>  -17.9165    1.0000 </r>
       <r>  -17.5934    1.0000 </r>
       <r>  -17.5729    1.0000 </r>
       <r>  -16.6711    1.0000 </r>
       <r>  -15.2537    1.0000 </r>
       <r>  -15.2500    1.0000 </r>
       <r>  -14.6348    1.0000 </r>
       <r>  -13.7272    1.0000 </r>
       <r>  -12.8210    1.0000 </r>
       <r>  -11.8986    1.0000 </r>
       <r>  -11.6825    1.0000 </r>
       <r>  -11.3887    1.0000 </r>
       <r>  -10.0393    1.0000 </r>
       <r>   -9.9213    1.0000 </r>
       <r>   -9.9092    1.0000 </r>
       <r>   -9.7107    1.0000 </r>
       <r>   -9.6302    1.0000 </r>
       <r>   -9.2824    1.0000 </r>
       <r>   -9.2645    1.0000 </r>
       <r>   -9.0374    1.0000 </r>
       <r>   -8.6066    1.0000 </r>
       <r>   -8.2587    1.0000 </r>
       <r>   -7.5790    1.0000 </r>
       <r>   -7.3539    1.0000 </r>
       <r>   -7.1428    1.0000 </r>
       <r>   -6.5696    1.0000 </r>
       <r>   -6.5446    1.0000 </r>
       <r>   -5.5814    1.0000 </r>
       <r>   -5.3854    1.0000 </r>
       <r>   -5.0741    1.0000 </r>
       <r>   -4.4328    1.0000 </r>
       <r>   -1.2968    0.0000 </r>
       <r>   -0.6854    0.0000 </r>
       <r>   -0.4251    0.0000 </r>
       <r>   -0.2986    0.0000 </r>
       <r>    1.0278    0.0000 </r>
       <r>    1.2242    0.0000 </r>
       <r>    1.8271    0.0000 </r>
       <r>    2.0446    0.0000 </r>
       <r>    2.1572    0.0000 </r>
       <r>    2.4025    0.0000 </r>
      </set>
      <set comment="kpoint 13">
       <r>  -21.5620    1.0000 </r>
       <r>  -21.5618    1.0000 </r>
       <r>  -20.8213    1.0000 </r>
       <r>  -19.7261    1.0000 </r>
       <r>  -18.3060    1.0000 </r>
       <r>  -18.3059    1.0000 </r>
       <r>  -17.3075    1.0000 </r>
       <r>  -17.3074    1.0000 </r>
       <r>  -16.9870    1.0000 </r>
       <r>  -15.9389    1.0000 </r>
       <r>  -15.0097    1.0000 </r>
       <r>  -15.0095    1.0000 </r>
       <r>  -13.2820    1.0000 </r>
       <r>  -13.2818    1.0000 </r>
       <r>  -11.3580    1.0000 </r>
       <r>  -10.9878    1.0000 </r>
       <r>  -10.9876    1.0000 </r>
       <r>  -10.5000    1.0000 </r>
       <r>  -10.4997    1.0000 </r>
       <r>   -9.9052    1.0000 </r>
       <r>   -9.6353    1.0000 </r>
       <r>   -9.5358    1.0000 </r>
       <r>   -9.5354    1.0000 </r>
       <r>   -9.3358    1.0000 </r>
       <r>   -8.6672    1.0000 </r>
       <r>   -8.4184    1.0000 </r>
       <r>   -8.1249    1.0000 </r>
       <r>   -8.1246    1.0000 </r>
       <r>   -7.4093    1.0000 </r>
       <r>   -7.0535    1.0000 </r>
       <r>   -7.0530    1.0000 </r>
       <r>   -5.8557    1.0000 </r>
       <r>   -5.8555    1.0000 </r>
       <r>   -5.0628    1.0000 </r>
       <r>   -5.0124    1.0000 </r>
       <r>   -5.0124    1.0000 </r>
       <r>   -1.0894    0.0000 </r>
       <r>   -0.8236    0.0000 </r>
       <r>   -0.8232    0.0000 </r>
       <r>    0.4100    0.0000 </r>
       <r>    0.4104    0.0000 </r>
       <r>    1.4641    0.0000 </r>
       <r>    1.4642    0.0000 </r>
       <r>    2.2674    0.0000 </r>
       <r>    2.2674    0.0000 </r>
       <r>    2.4800    0.0000 </r>
      </set>
      <set comment="kpoint 14">
       <r>  -21.5620    1.0000 </r>
       <r>  -21.5618    1.0000 </r>
       <r>  -20.8213    1.0000 </r>
       <r>  -19.7261    1.0000 </r>
       <r>  -18.3060    1.0000 </r>
       <r>  -18.3059    1.0000 </r>
       <r>  -17.3075    1.0000 </r>
       <r>  -17.3074    1.0000 </r>
       <r>  -16.9869    1.0000 </r>
       <r>  -15.9390    1.0000 </r>
       <r>  -15.0097    1.0000 </r>
       <r>  -15.0095    1.0000 </r>
       <r>  -13.2819    1.0000 </r>
       <r>  -13.2818    1.0000 </r>
       <r>  -11.3579    1.0000 </r>
       <r>  -10.9878    1.0000 </r>
       <r>  -10.9876    1.0000 </r>
       <r>  -10.4999    1.0000 </r>
       <r>  -10.4998    1.0000 </r>
       <r>   -9.9053    1.0000 </r>
       <r>   -9.6353    1.0000 </r>
       <r>   -9.5358    1.0000 </r>
       <r>   -9.5353    1.0000 </r>
       <r>   -9.3359    1.0000 </r>
       <r>   -8.6671    1.0000 </r>
       <r>   -8.4185    1.0000 </r>
       <r>   -8.1249    1.0000 </r>
       <r>   -8.1248    1.0000 </r>
       <r>   -7.4093    1.0000 </r>
       <r>   -7.0535    1.0000 </r>
       <r>   -7.0528    1.0000 </r>
       <r>   -5.8556    1.0000 </r>
       <r>   -5.8555    1.0000 </r>
       <r>   -5.0628    1.0000 </r>
       <r>   -5.0124    1.0000 </r>
       <r>   -5.0124    1.0000 </r>
       <r>   -1.0894    0.0000 </r>
       <r>   -0.8235    0.0000 </r>
       <r>   -0.8233    0.0000 </r>
       <r>    0.4099    0.0000 </r>
       <r>    0.4105    0.0000 </r>
       <r>    1.4641    0.0000 </r>
       <r>    1.4642    0.0000 </r>
       <r>    2.2674    0.0000 </r>
       <r>    2.2674    0.0000 </r>
       <r>    2.4814    0.0000 </r>
      </set>
      <set comment="kpoint 15">
       <r>  -21.6151    1.0000 </r>
       <r>  -21.2437    1.0000 </r>
       <r>  -21.2435    1.0000 </r>
       <r>  -19.0600    1.0000 </r>
       <r>  -19.0599    1.0000 </r>
       <r>  -18.3556    1.0000 </r>
       <r>  -17.0888    1.0000 </r>
       <r>  -17.0887    1.0000 </r>
       <r>  -16.7114    1.0000 </r>
       <r>  -15.6765    1.0000 </r>
       <r>  -15.6142    1.0000 </r>
       <r>  -15.6141    1.0000 </r>
       <r>  -12.9179    1.0000 </r>
       <r>  -12.2633    1.0000 </r>
       <r>  -12.2632    1.0000 </r>
       <r>  -11.3539    1.0000 </r>
       <r>  -10.5571    1.0000 </r>
       <r>  -10.5494    1.0000 </r>
       <r>  -10.5490    1.0000 </r>
       <r>   -9.8195    1.0000 </r>
       <r>   -9.8194    1.0000 </r>
       <r>   -9.5986    1.0000 </r>
       <r>   -9.1611    1.0000 </r>
       <r>   -9.1608    1.0000 </r>
       <r>   -8.8219    1.0000 </r>
       <r>   -8.8218    1.0000 </r>
       <r>   -7.8827    1.0000 </r>
       <r>   -7.6861    1.0000 </r>
       <r>   -7.6859    1.0000 </r>
       <r>   -7.0826    1.0000 </r>
       <r>   -6.6645    1.0000 </r>
       <r>   -6.6644    1.0000 </r>
       <r>   -5.8934    1.0000 </r>
       <r>   -5.0051    1.0000 </r>
       <r>   -5.0051    1.0000 </r>
       <r>   -4.6730    1.0000 </r>
       <r>   -1.2279    0.0000 </r>
       <r>   -1.0249    0.0000 </r>
       <r>   -1.0247    0.0000 </r>
       <r>    0.5279    0.0000 </r>
       <r>    1.3897    0.0000 </r>
       <r>    1.4822    0.0000 </r>
       <r>    1.4831    0.0000 </r>
       <r>    1.9002    0.0000 </r>
       <r>    1.9008    0.0000 </r>
       <r>    2.1942    0.0000 </r>
      </set>
      <set comment="kpoint 16">
       <r>  -21.6151    1.0000 </r>
       <r>  -21.2437    1.0000 </r>
       <r>  -21.2435    1.0000 </r>
       <r>  -19.0600    1.0000 </r>
       <r>  -19.0599    1.0000 </r>
       <r>  -18.3556    1.0000 </r>
       <r>  -17.0888    1.0000 </r>
       <r>  -17.0887    1.0000 </r>
       <r>  -16.7115    1.0000 </r>
       <r>  -15.6764    1.0000 </r>
       <r>  -15.6143    1.0000 </r>
       <r>  -15.6142    1.0000 </r>
       <r>  -12.9180    1.0000 </r>
       <r>  -12.2633    1.0000 </r>
       <r>  -12.2630    1.0000 </r>
       <r>  -11.3539    1.0000 </r>
       <r>  -10.5571    1.0000 </r>
       <r>  -10.5493    1.0000 </r>
       <r>  -10.5492    1.0000 </r>
       <r>   -9.8196    1.0000 </r>
       <r>   -9.8193    1.0000 </r>
       <r>   -9.5986    1.0000 </r>
       <r>   -9.1611    1.0000 </r>
       <r>   -9.1609    1.0000 </r>
       <r>   -8.8219    1.0000 </r>
       <r>   -8.8216    1.0000 </r>
       <r>   -7.8828    1.0000 </r>
       <r>   -7.6860    1.0000 </r>
       <r>   -7.6860    1.0000 </r>
       <r>   -7.0826    1.0000 </r>
       <r>   -6.6647    1.0000 </r>
       <r>   -6.6642    1.0000 </r>
       <r>   -5.8933    1.0000 </r>
       <r>   -5.0051    1.0000 </r>
       <r>   -5.0051    1.0000 </r>
       <r>   -4.6730    1.0000 </r>
       <r>   -1.2278    0.0000 </r>
       <r>   -1.0251    0.0000 </r>
       <r>   -1.0246    0.0000 </r>
       <r>    0.5277    0.0000 </r>
       <r>    1.3904    0.0000 </r>
       <r>    1.4820    0.0000 </r>
       <r>    1.4828    0.0000 </r>
       <r>    1.9002    0.0000 </r>
       <r>    1.9007    0.0000 </r>
       <r>    2.1942    0.0000 </r>
      </set>
     </set>
    </set>
   </array>
  </eigenvalues>
  <separator name="orbital magnetization" >
   <v name="MAGDIPOLOUT">      0.00000000      0.00000000      0.00000000</v>
  </separator>
  <dos>
   <i name="efermi">     -2.75533176 </i>
   <total>
    <array>
     <dimension dim="1">gridpoints</dimension>
     <dimension dim="2">spin</dimension>
     <field>energy</field>
     <field>total</field>
     <field>integrated</field>
     <set>
      <set comment="spin 1">
       <r>   -23.5111     0.0000     0.0000 </r>
       <r>   -23.4191     0.0000     0.0000 </r>
       <r>   -23.3270     0.0000     0.0000 </r>
       <r>   -23.2350     0.0000     0.0000 </r>
       <r>   -23.1429     0.0000     0.0000 </r>
       <r>   -23.0508     0.0000     0.0000 </r>
       <r>   -22.9588     0.0000     0.0000 </r>
       <r>   -22.8667     0.0000     0.0000 </r>
       <r>   -22.7747     0.0000     0.0000 </r>
       <r>   -22.6826     0.0000     0.0000 </r>
       <r>   -22.5905     0.0000     0.0000 </r>
       <r>   -22.4985     0.0000     0.0000 </r>
       <r>   -22.4064     0.0000     0.0000 </r>
       <r>   -22.3144     0.0236     0.0022 </r>
       <r>   -22.2223     1.1016     0.1036 </r>
       <r>   -22.1303     2.3657     0.3214 </r>
       <r>   -22.0382     3.5650     0.6496 </r>
       <r>   -21.9461     1.5382     0.7912 </r>
       <r>   -21.8541     4.0170     1.1610 </r>
       <r>   -21.7620     2.8375     1.4222 </r>
       <r>   -21.6700     1.1187     1.5252 </r>
       <r>   -21.5779     3.8396     1.8786 </r>
       <r>   -21.4858     3.9192     2.2394 </r>
       <r>   -21.3938     1.6508     2.3914 </r>
       <r>   -21.3017     1.3296     2.5138 </r>
       <r>   -21.2097     4.2743     2.9073 </r>
       <r>   -21.1176     4.5904     3.3299 </r>
       <r>   -21.0256     1.5181     3.4696 </r>
       <r>   -20.9335     1.1197     3.5727 </r>
       <r>   -20.8414     2.3789     3.7917 </r>
       <r>   -20.7494     5.5260     4.3004 </r>
       <r>   -20.6573     2.1111     4.4948 </r>
       <r>   -20.5653     4.2981     4.8904 </r>
       <r>   -20.4732     0.5253     4.9388 </r>
       <r>   -20.3811     0.5256     4.9872 </r>
       <r>   -20.2891     5.1706     5.4632 </r>
       <r>   -20.1970     4.6656     5.8927 </r>
       <r>   -20.1050     2.9057     6.1602 </r>
       <r>   -20.0129     1.1378     6.2649 </r>
       <r>   -19.9208     4.0203     6.6350 </r>
       <r>   -19.8288     0.2008     6.6535 </r>
       <r>   -19.7367     1.3130     6.7744 </r>
       <r>   -19.6447     7.6686     7.4803 </r>
       <r>   -19.5526     2.5711     7.7170 </r>
       <r>   -19.4606     4.1463     8.0987 </r>
       <r>   -19.3685     0.2647     8.1231 </r>
       <r>   -19.2764     1.8297     8.2915 </r>
       <r>   -19.1844     3.4119     8.6056 </r>
       <r>   -19.0923     1.0291     8.7004 </r>
       <r>   -19.0003     4.7454     9.1372 </r>
       <r>   -18.9082     5.7802     9.6693 </r>
       <r>   -18.8161     2.0291     9.8561 </r>
       <r>   -18.7241     4.1022    10.2338 </r>
       <r>   -18.6320     1.0061    10.3264 </r>
       <r>   -18.5400     0.0439    10.3305 </r>
       <r>   -18.4479     3.0419    10.6105 </r>
       <r>   -18.3559     3.9639    10.9754 </r>
       <r>   -18.2638     5.6266    11.4934 </r>
       <r>   -18.1717     2.4870    11.7223 </r>
       <r>   -18.0797     4.2322    12.1119 </r>
       <r>   -17.9876     1.9612    12.2925 </r>
       <r>   -17.8956     3.7745    12.6399 </r>
       <r>   -17.8035     1.4689    12.7752 </r>
       <r>   -17.7114     0.0062    12.7757 </r>
       <r>   -17.6194     1.7304    12.9350 </r>
       <r>   -17.5273     8.7311    13.7388 </r>
       <r>   -17.4353     4.9838    14.1976 </r>
       <r>   -17.3432     1.3437    14.3213 </r>
       <r>   -17.2512     4.8953    14.7720 </r>
       <r>   -17.1591     2.3146    14.9850 </r>
       <r>   -17.0670     3.8580    15.3402 </r>
       <r>   -16.9750     3.0824    15.6240 </r>
       <r>   -16.8829     0.9813    15.7143 </r>
       <r>   -16.7909     1.5233    15.8545 </r>
       <r>   -16.6988     8.7714    16.6620 </r>
       <r>   -16.6067     5.4793    17.1664 </r>
       <r>   -16.5147     0.1874    17.1837 </r>
       <r>   -16.4226     0.0000    17.1837 </r>
       <r>   -16.3306     0.0000    17.1837 </r>
       <r>   -16.2385     0.0395    17.1873 </r>
       <r>   -16.1464     1.7333    17.3469 </r>
       <r>   -16.0544     1.1356    17.4514 </r>
       <r>   -15.9623     4.8104    17.8943 </r>
       <r>   -15.8703     2.8525    18.1569 </r>
       <r>   -15.7782     0.5483    18.2073 </r>
       <r>   -15.6862     3.2119    18.5030 </r>
       <r>   -15.5941     5.4086    19.0009 </r>
       <r>   -15.5020     1.5378    19.1425 </r>
       <r>   -15.4100     0.0483    19.1469 </r>
       <r>   -15.3179     1.6338    19.2973 </r>
       <r>   -15.2259    10.0190    20.2197 </r>
       <r>   -15.1338     3.3708    20.5300 </r>
       <r>   -15.0417     0.9728    20.6195 </r>
       <r>   -14.9497     4.9154    21.0720 </r>
       <r>   -14.8576     4.4539    21.4821 </r>
       <r>   -14.7656     1.2660    21.5986 </r>
       <r>   -14.6735     2.8319    21.8593 </r>
       <r>   -14.5815     8.5604    22.6474 </r>
       <r>   -14.4894     0.9482    22.7347 </r>
       <r>   -14.3973     0.0889    22.7428 </r>
       <r>   -14.3053     3.7474    23.0878 </r>
       <r>   -14.2132     4.1456    23.4695 </r>
       <r>   -14.1212     4.5451    23.8879 </r>
       <r>   -14.0291     0.8459    23.9657 </r>
       <r>   -13.9370     3.4019    24.2789 </r>
       <r>   -13.8450     1.8424    24.4485 </r>
       <r>   -13.7529     1.2466    24.5633 </r>
       <r>   -13.6609     4.0144    24.9328 </r>
       <r>   -13.5688     2.2997    25.1445 </r>
       <r>   -13.4768     4.3517    25.5452 </r>
       <r>   -13.3847     1.4035    25.6744 </r>
       <r>   -13.2926     2.4253    25.8976 </r>
       <r>   -13.2006     3.7098    26.2391 </r>
       <r>   -13.1085     0.0628    26.2449 </r>
       <r>   -13.0165     0.7457    26.3136 </r>
       <r>   -12.9244     9.5375    27.1916 </r>
       <r>   -12.8323     4.9860    27.6506 </r>
       <r>   -12.7403     3.2927    27.9537 </r>
       <r>   -12.6482     0.3473    27.9857 </r>
       <r>   -12.5562     2.1444    28.1831 </r>
       <r>   -12.4641     0.2431    28.2055 </r>
       <r>   -12.3720     1.5774    28.3507 </r>
       <r>   -12.2800     7.9675    29.0841 </r>
       <r>   -12.1879     8.6918    29.8843 </r>
       <r>   -12.0959     2.9957    30.1601 </r>
       <r>   -12.0038     0.0423    30.1640 </r>
       <r>   -11.9118     1.8772    30.3368 </r>
       <r>   -11.8197     3.4116    30.6509 </r>
       <r>   -11.7276     3.6624    30.9880 </r>
       <r>   -11.6356     6.4995    31.5863 </r>
       <r>   -11.5435     0.5028    31.6326 </r>
       <r>   -11.4515     0.2209    31.6530 </r>
       <r>   -11.3594     6.4804    32.2495 </r>
       <r>   -11.2673     6.0385    32.8054 </r>
       <r>   -11.1753     3.3851    33.1171 </r>
       <r>   -11.0832     5.5927    33.6319 </r>
       <r>   -10.9912     4.6696    34.0618 </r>
       <r>   -10.8991     2.8431    34.3235 </r>
       <r>   -10.8071     0.0325    34.3265 </r>
       <r>   -10.7150     0.0023    34.3267 </r>
       <r>   -10.6229     1.4208    34.4575 </r>
       <r>   -10.5309    11.0657    35.4762 </r>
       <r>   -10.4388    10.7583    36.4666 </r>
       <r>   -10.3468     2.7480    36.7196 </r>
       <r>   -10.2547     5.9594    37.2682 </r>
       <r>   -10.1626     2.0384    37.4559 </r>
       <r>   -10.0706     4.2431    37.8465 </r>
       <r>    -9.9785     5.0052    38.3072 </r>
       <r>    -9.8865    10.8020    39.3017 </r>
       <r>    -9.7944    10.0550    40.2273 </r>
       <r>    -9.7023     6.1740    40.7957 </r>
       <r>    -9.6103     8.8811    41.6133 </r>
       <r>    -9.5182     8.7435    42.4182 </r>
       <r>    -9.4262     5.5642    42.9304 </r>
       <r>    -9.3341     3.7325    43.2740 </r>
       <r>    -9.2421    10.4658    44.2375 </r>
       <r>    -9.1500    11.8733    45.3305 </r>
       <r>    -9.0579    15.0102    46.7123 </r>
       <r>    -8.9659     6.7324    47.3321 </r>
       <r>    -8.8738     2.8862    47.5978 </r>
       <r>    -8.7818    12.7120    48.7681 </r>
       <r>    -8.6897     6.7503    49.3895 </r>
       <r>    -8.5976     7.3997    50.0707 </r>
       <r>    -8.5056     7.1530    50.7292 </r>
       <r>    -8.4135     8.0111    51.4667 </r>
       <r>    -8.3215     3.3183    51.7722 </r>
       <r>    -8.2294     4.0722    52.1470 </r>
       <r>    -8.1374     5.4509    52.6488 </r>
       <r>    -8.0453    13.9646    53.9344 </r>
       <r>    -7.9532     5.1394    54.4075 </r>
       <r>    -7.8612     5.0013    54.8680 </r>
       <r>    -7.7691     1.1273    54.9717 </r>
       <r>    -7.6771     8.5005    55.7543 </r>
       <r>    -7.5850     6.9599    56.3950 </r>
       <r>    -7.4929     5.1835    56.8722 </r>
       <r>    -7.4009     2.8728    57.1366 </r>
       <r>    -7.3088     7.4000    57.8179 </r>
       <r>    -7.2168     2.2022    58.0206 </r>
       <r>    -7.1247    10.1020    58.9506 </r>
       <r>    -7.0327     7.9222    59.6799 </r>
       <r>    -6.9406     3.3314    59.9866 </r>
       <r>    -6.8485     3.5974    60.3177 </r>
       <r>    -6.7565     0.1324    60.3299 </r>
       <r>    -6.6644     4.2955    60.7254 </r>
       <r>    -6.5724    10.5979    61.7010 </r>
       <r>    -6.4803     8.8217    62.5131 </r>
       <r>    -6.3882     4.1333    62.8936 </r>
       <r>    -6.2962     4.0106    63.2628 </r>
       <r>    -6.2041     1.7833    63.4270 </r>
       <r>    -6.1121     4.9779    63.8853 </r>
       <r>    -6.0200     4.7376    64.3214 </r>
       <r>    -5.9279     2.9054    64.5889 </r>
       <r>    -5.8359     7.9530    65.3210 </r>
       <r>    -5.7438     7.1503    65.9793 </r>
       <r>    -5.6518     3.4318    66.2952 </r>
       <r>    -5.5597     3.7821    66.6434 </r>
       <r>    -5.4677     1.4854    66.7801 </r>
       <r>    -5.3756     3.1938    67.0741 </r>
       <r>    -5.2835     2.0870    67.2662 </r>
       <r>    -5.1915     1.5171    67.4059 </r>
       <r>    -5.0994     3.2167    67.7020 </r>
       <r>    -5.0074    15.7004    69.1474 </r>
       <r>    -4.9153     6.1120    69.7100 </r>
       <r>    -4.8232     0.0461    69.7143 </r>
       <r>    -4.7312     0.1329    69.7265 </r>
       <r>    -4.6391     2.0781    69.9178 </r>
       <r>    -4.5471     0.4520    69.9594 </r>
       <r>    -4.4550     1.4088    70.0891 </r>
       <r>    -4.3630     3.9718    70.4548 </r>
       <r>    -4.2709     5.0668    70.9212 </r>
       <r>    -4.1788     2.8153    71.1804 </r>
       <r>    -4.0868     0.0357    71.1837 </r>
       <r>    -3.9947     0.0093    71.1845 </r>
       <r>    -3.9027     1.2227    71.2971 </r>
       <r>    -3.8106     1.4123    71.4271 </r>
       <r>    -3.7185     0.0160    71.4286 </r>
       <r>    -3.6265     0.0126    71.4297 </r>
       <r>    -3.5344     2.1848    71.6309 </r>
       <r>    -3.4424     3.0775    71.9142 </r>
       <r>    -3.3503     0.0456    71.9184 </r>
       <r>    -3.2583     0.0000    71.9184 </r>
       <r>    -3.1662     0.0000    71.9184 </r>
       <r>    -3.0741     0.0000    71.9184 </r>
       <r>    -2.9821     0.0000    71.9184 </r>
       <r>    -2.8900     0.0001    71.9184 </r>
       <r>    -2.7980     0.2020    71.9370 </r>
       <r>    -2.7059     1.4276    72.0684 </r>
       <r>    -2.6138     0.1437    72.0816 </r>
       <r>    -2.5218     0.0001    72.0816 </r>
       <r>    -2.4297     0.0000    72.0816 </r>
       <r>    -2.3377     0.0000    72.0816 </r>
       <r>    -2.2456     0.0000    72.0816 </r>
       <r>    -2.1535     0.0001    72.0816 </r>
       <r>    -2.0615     0.2884    72.1082 </r>
       <r>    -1.9694     4.1860    72.4935 </r>
       <r>    -1.8774     0.8452    72.5714 </r>
       <r>    -1.7853     0.0468    72.5757 </r>
       <r>    -1.6933     1.7844    72.7399 </r>
       <r>    -1.6012     0.8272    72.8161 </r>
       <r>    -1.5091     0.0026    72.8163 </r>
       <r>    -1.4171     0.0022    72.8165 </r>
       <r>    -1.3250     1.8760    72.9892 </r>
       <r>    -1.2330    11.5129    74.0491 </r>
       <r>    -1.1409     2.7469    74.3020 </r>
       <r>    -1.0488     3.5058    74.6247 </r>
       <r>    -0.9568     5.8786    75.1659 </r>
       <r>    -0.8647     1.7212    75.3243 </r>
       <r>    -0.7727     4.3129    75.7214 </r>
       <r>    -0.6806     3.3330    76.0282 </r>
       <r>    -0.5886     4.7844    76.4687 </r>
       <r>    -0.4965     2.9729    76.7423 </r>
       <r>    -0.4044     3.7589    77.0884 </r>
       <r>    -0.3124     3.3775    77.3993 </r>
       <r>    -0.2203     5.1963    77.8777 </r>
       <r>    -0.1283     0.8831    77.9590 </r>
       <r>    -0.0362     0.0027    77.9592 </r>
       <r>     0.0559     0.5231    78.0074 </r>
       <r>     0.1479     4.2948    78.4027 </r>
       <r>     0.2400     1.4503    78.5363 </r>
       <r>     0.3320     4.1979    78.9227 </r>
       <r>     0.4241     3.6539    79.2591 </r>
       <r>     0.5162     3.0686    79.5416 </r>
       <r>     0.6082     3.6502    79.8776 </r>
       <r>     0.7003     1.3153    79.9987 </r>
       <r>     0.7923     5.8829    80.5403 </r>
       <r>     0.8844     5.8601    81.0797 </r>
       <r>     0.9764     1.5117    81.2189 </r>
       <r>     1.0685     4.2758    81.6125 </r>
       <r>     1.1606     1.8003    81.7783 </r>
       <r>     1.2526     5.7064    82.3036 </r>
       <r>     1.3447     2.0937    82.4963 </r>
       <r>     1.4367     6.8488    83.1268 </r>
       <r>     1.5288    14.1612    84.4305 </r>
       <r>     1.6209     4.4271    84.8380 </r>
       <r>     1.7129     4.6532    85.2664 </r>
       <r>     1.8050     3.3528    85.5750 </r>
       <r>     1.8970     8.7803    86.3833 </r>
       <r>     1.9891     8.8964    87.2023 </r>
       <r>     2.0811     9.2377    88.0527 </r>
       <r>     2.1732     6.8725    88.6854 </r>
       <r>     2.2653     6.9476    89.3250 </r>
       <r>     2.3573     7.4147    90.0076 </r>
       <r>     2.4494     6.0717    90.5665 </r>
       <r>     2.5414     4.6676    90.9962 </r>
       <r>     2.6335     1.7050    91.1532 </r>
       <r>     2.7256     1.8435    91.3229 </r>
       <r>     2.8176     4.6784    91.7536 </r>
       <r>     2.9097     2.5468    91.9880 </r>
       <r>     3.0017     0.1299    92.0000 </r>
       <r>     3.0938     0.0000    92.0000 </r>
       <r>     3.1858     0.0000    92.0000 </r>
       <r>     3.2779     0.0000    92.0000 </r>
       <r>     3.3700     0.0000    92.0000 </r>
       <r>     3.4620     0.0000    92.0000 </r>
       <r>     3.5541     0.0000    92.0000 </r>
       <r>     3.6461     0.0000    92.0000 </r>
       <r>     3.7382     0.0000    92.0000 </r>
       <r>     3.8303     0.0000    92.0000 </r>
       <r>     3.9223     0.0000    92.0000 </r>
       <r>     4.0144     0.0000    92.0000 </r>
       <r>     4.1064     0.0000    92.0000 </r>
      </set>
     </set>
    </array>
   </total>
  </dos>
 </calculation>
 <structure name="finalpos" >
  <crystal>
   <varray name="basis" >
    <v>       7.40170591       0.00000000       0.00000000 </v>
    <v>      -3.70085295       6.41006527       0.00000000 </v>
    <v>       0.00000000       0.00000000      20.00000000 </v>
   </varray>
   <i name="volume">    948.90835877 </i>
   <varray name="rec_basis" >
    <v>       0.13510399       0.07800233       0.00000000 </v>
    <v>       0.00000000       0.15600465       0.00000000 </v>
    <v>       0.00000000       0.00000000       0.05000000 </v>
   </varray>
  </crystal>
  <varray name="positions" >
   <v>       0.00000000       0.00000000       0.50050000 </v>
   <v>       0.33333333       0.00000000       0.50000000 </v>
   <v>       0.66666667       0.00000000       0.50000000 </v>
   <v>       0.00000000       0.33333333       0.50000000 </v>
   <v>       0.33333333       0.33333333       0.50000000 </v>
   <v>       0.66666667       0.33333333       0.50000000 </v>
   <v>       0.00000000       0.66666667       0.50000000 </v>
   <v>       0.33333333       0.66666667       0.50000000 </v>
   <v>       0.66666667       0.66666667       0.50000000 </v>
   <v>       0.22222222       0.11111111       0.49950000 </v>
   <v>       0.55555556       0.11111111       0.50000000 </v>
   <v>       0.88888889       0.11111111       0.50000000 </v>
   <v>       0.22222222       0.44444444       0.50000000 </v>
   <v>       0.55555556       0.44444444       0.50000000 </v>
   <v>       0.88888889       0.44444444       0.50000000 </v>
   <v>       0.22222222       0.77777778       0.50000000 </v>
   <v>       0.55555556       0.77777778       0.50000000 </v>
   <v>       0.88888889       0.77777778       0.50000000 </v>
  </varray>
 </structure>
</modeling>
