<?xml version="1.0" encoding="ISO-8859-1"?>
<modeling>
 <generator>
  <i name="program" type="string">vasp </i>
  <i name="version" type="string">6.4.1  </i>
  <i name="subversion" type="string">05Apr23 (build Feb 12 2025 00:37:39) complex                          parallel </i>
  <i name="platform" type="string">LinuxIFC </i>
  <i name="date" type="string">2025 02 14 </i>
  <i name="time" type="string">05:12:37 </i>
 </generator>
 <incar>
  <i type="string" name="SYSTEM">SCF</i>
  <i type="int" name="ISTART">     0</i>
  <i type="int" name="ICHARG">     2</i>
  <i type="int" name="NELM">    60</i>
  <i type="int" name="NELMIN">     6</i>
  <i name="EDIFF">      0.00000100</i>
  <i name="EDIFFG">     -0.00000100</i>
  <i name="ENCUT">    600.00000000</i>
  <i type="string" name="LREAL">Auto</i>
  <i type="int" name="ISMEAR">     0</i>
  <i name="SIGMA">      0.05000000</i>
  <i type="logical" name="LWAVE"> F  </i>
  <i type="logical" name="LCHARG"> F  </i>
 </incar>
 <primitive_cell>
  <structure name="primitive_cell" >
   <crystal>
    <varray name="basis" >
     <v>       7.40170591       0.00000000       0.00000000 </v>
     <v>      -3.70085295       6.41006527       0.00000000 </v>
     <v>       0.00000000       0.00000000      20.00000000 </v>
    </varray>
    <i name="volume">    948.90835877 </i>
    <varray name="rec_basis" >
     <v>       0.13510399       0.07800233       0.00000000 </v>
     <v>       0.00000000       0.15600465       0.00000000 </v>
     <v>       0.00000000       0.00000000       0.05000000 </v>
    </varray>
   </crystal>
   <varray name="positions" >
    <v>       0.00078002       0.00156005       0.50000000 </v>
    <v>       0.33333333       0.00000000       0.50000000 </v>
    <v>       0.66666667       0.00000000       0.50000000 </v>
    <v>       1.00000000       0.33333333       0.50000000 </v>
    <v>       0.33333333       0.33333333       0.50000000 </v>
    <v>       0.66666667       0.33333333       0.50000000 </v>
    <v>       1.00000000       0.66666667       0.50000000 </v>
    <v>       0.33333333       0.66666667       0.50000000 </v>
    <v>       0.66666667       0.66666667       0.50000000 </v>
    <v>       0.22357326       0.11111111       0.50000000 </v>
    <v>       0.55555556       0.11111111       0.50000000 </v>
    <v>       0.88888889       0.11111111       0.50000000 </v>
    <v>       0.22222222       0.44444444       0.50000000 </v>
    <v>       0.55555556       0.44444444       0.50000000 </v>
    <v>       0.88888889       0.44444444       0.50000000 </v>
    <v>       0.22222222       0.77777778       0.50000000 </v>
    <v>       0.55555556       0.77777778       0.50000000 </v>
    <v>       0.88888889       0.77777778       0.50000000 </v>
   </varray>
  </structure>
  <varray name="primitive_index" >
   <v type="int" >        1 </v>
   <v type="int" >        2 </v>
   <v type="int" >        3 </v>
   <v type="int" >        4 </v>
   <v type="int" >        5 </v>
   <v type="int" >        6 </v>
   <v type="int" >        7 </v>
   <v type="int" >        8 </v>
   <v type="int" >        9 </v>
   <v type="int" >       10 </v>
   <v type="int" >       11 </v>
   <v type="int" >       12 </v>
   <v type="int" >       13 </v>
   <v type="int" >       14 </v>
   <v type="int" >       15 </v>
   <v type="int" >       16 </v>
   <v type="int" >       17 </v>
   <v type="int" >       18 </v>
  </varray>
 </primitive_cell>
 <kpoints>
  <generation param="Gamma">
   <v type="int" name="divisions">       7        7        1 </v>
   <v name="usershift">      0.00000000       0.00000000       0.00000000 </v>
   <v name="genvec1">      0.14285714       0.00000000       0.00000000 </v>
   <v name="genvec2">      0.00000000       0.14285714       0.00000000 </v>
   <v name="genvec3">      0.00000000       0.00000000       1.00000000 </v>
   <v name="shift">      0.00000000       0.00000000       0.00000000 </v>
  </generation>
  <varray name="kpointlist" >
   <v>       0.00000000       0.00000000       0.00000000 </v>
   <v>       0.14285714       0.00000000       0.00000000 </v>
   <v>       0.00000000       0.14285714       0.00000000 </v>
   <v>      -0.14285714       0.14285714       0.00000000 </v>
   <v>       0.28571429       0.00000000       0.00000000 </v>
   <v>       0.00000000       0.28571429       0.00000000 </v>
   <v>      -0.28571429       0.28571429       0.00000000 </v>
   <v>       0.42857143       0.00000000       0.00000000 </v>
   <v>       0.00000000       0.42857143       0.00000000 </v>
   <v>      -0.42857143       0.42857143       0.00000000 </v>
   <v>       0.14285714       0.14285714       0.00000000 </v>
   <v>      -0.14285714       0.28571429       0.00000000 </v>
   <v>      -0.28571429       0.14285714       0.00000000 </v>
   <v>       0.28571429       0.14285714       0.00000000 </v>
   <v>      -0.14285714       0.42857143       0.00000000 </v>
   <v>      -0.42857143       0.28571429       0.00000000 </v>
   <v>      -0.28571429       0.42857143       0.00000000 </v>
   <v>       0.14285714       0.28571429       0.00000000 </v>
   <v>       0.42857143      -0.14285714       0.00000000 </v>
   <v>       0.42857143       0.14285714       0.00000000 </v>
   <v>      -0.14285714      -0.42857143       0.00000000 </v>
   <v>       0.42857143       0.42857143       0.00000000 </v>
   <v>       0.28571429       0.28571429       0.00000000 </v>
   <v>      -0.28571429      -0.42857143       0.00000000 </v>
   <v>       0.42857143       0.28571429       0.00000000 </v>
  </varray>
  <varray name="weights" >
   <v>       0.02040816 </v>
   <v>       0.04081633 </v>
   <v>       0.04081633 </v>
   <v>       0.04081633 </v>
   <v>       0.04081633 </v>
   <v>       0.04081633 </v>
   <v>       0.04081633 </v>
   <v>       0.04081633 </v>
   <v>       0.04081633 </v>
   <v>       0.04081633 </v>
   <v>       0.04081633 </v>
   <v>       0.04081633 </v>
   <v>       0.04081633 </v>
   <v>       0.04081633 </v>
   <v>       0.04081633 </v>
   <v>       0.04081633 </v>
   <v>       0.04081633 </v>
   <v>       0.04081633 </v>
   <v>       0.04081633 </v>
   <v>       0.04081633 </v>
   <v>       0.04081633 </v>
   <v>       0.04081633 </v>
   <v>       0.04081633 </v>
   <v>       0.04081633 </v>
   <v>       0.04081633 </v>
  </varray>
 </kpoints>
 <parameters>
  <separator name="general" >
   <i type="string" name="SYSTEM">SCF</i>
   <i type="logical" name="LCOMPAT"> F  </i>
  </separator>
  <separator name="electronic" >
   <i type="string" name="PREC">normal</i>
   <i name="ENMAX">    600.00000000</i>
   <i name="ENAUG">    644.87300000</i>
   <i name="EDIFF">      0.00000100</i>
   <i type="int" name="IALGO">    38</i>
   <i type="int" name="IWAVPR">    10</i>
   <i type="int" name="NBANDS">    46</i>
   <i type="int" name="NBANDSLOW">    -1</i>
   <i type="int" name="NBANDSHIGH">    -1</i>
   <i name="NELECT">     72.00000000</i>
   <i type="int" name="TURBO">     0</i>
   <i type="int" name="IRESTART">     0</i>
   <i type="int" name="NREBOOT">     0</i>
   <i type="int" name="NMIN">     0</i>
   <i name="EREF">      0.00000000</i>
   <separator name="electronic smearing" >
    <i type="int" name="ISMEAR">     0</i>
    <i name="SIGMA">      0.05000000</i>
    <i name="KSPACING">      0.50000000</i>
    <i type="logical" name="KGAMMA"> T  </i>
    <i type="logical" name="KBLOWUP"> T  </i>
   </separator>
   <separator name="electronic projectors" >
    <i type="logical" name="LREAL"> T  </i>
    <v name="ROPT">     -0.00050000</v>
    <i type="int" name="LMAXPAW">  -100</i>
    <i type="int" name="LMAXMIX">     2</i>
    <i type="logical" name="NLSPLINE"> F  </i>
   </separator>
   <separator name="electronic startup" >
    <i type="int" name="ISTART">     0</i>
    <i type="int" name="ICHARG">     2</i>
    <i type="int" name="INIWAV">     1</i>
   </separator>
   <separator name="electronic spin" >
    <i type="int" name="ISPIN">     1</i>
    <i type="logical" name="LNONCOLLINEAR"> F  </i>
    <v name="MAGMOM">      1.00000000      1.00000000      1.00000000      1.00000000      1.00000000      1.00000000      1.00000000      1.00000000      1.00000000      1.00000000      1.00000000      1.00000000      1.00000000      1.00000000      1.00000000      1.00000000      1.00000000      1.00000000</v>
    <i name="NUPDOWN">     -1.00000000</i>
    <i type="logical" name="LSORBIT"> F  </i>
    <v name="SAXIS">      0.00000000      0.00000000      1.00000000</v>
    <i type="logical" name="LSPIRAL"> F  </i>
    <v name="QSPIRAL">      0.00000000      0.00000000      0.00000000</v>
    <i type="logical" name="LZEROZ"> F  </i>
   </separator>
   <separator name="electronic exchange-correlation" >
    <i type="logical" name="LASPH"> F  </i>
    <i type="logical" name="LMETAGGA"> F  </i>
   </separator>
   <separator name="electronic convergence" >
    <i type="int" name="NELM">    60</i>
    <i type="int" name="NELMDL">    -5</i>
    <i type="int" name="NELMIN">     6</i>
    <i name="ENINI">    600.00000000</i>
    <separator name="electronic convergence detail" >
     <i type="logical" name="LDIAG"> T  </i>
     <i type="logical" name="LSUBROT"> F  </i>
     <i name="WEIMIN">      0.00000000</i>
     <i name="EBREAK">      0.00000000</i>
     <i name="DEPER">      0.30000000</i>
     <i type="int" name="NRMM">     4</i>
     <i name="TIME">      0.40000000</i>
    </separator>
   </separator>
   <separator name="electronic mixer" >
    <i name="AMIX">      0.40000000</i>
    <i name="BMIX">      1.00000000</i>
    <i name="AMIN">      0.10000000</i>
    <i name="AMIX_MAG">      1.60000000</i>
    <i name="BMIX_MAG">      1.00000000</i>
    <separator name="electronic mixer details" >
     <i type="int" name="IMIX">     4</i>
     <i type="logical" name="MIXFIRST"> F  </i>
     <i type="int" name="MAXMIX">   -45</i>
     <i name="WC">    100.00000000</i>
     <i type="int" name="INIMIX">     1</i>
     <i type="int" name="MIXPRE">     1</i>
     <i type="int" name="MREMOVE">     5</i>
    </separator>
   </separator>
   <separator name="electronic dipolcorrection" >
    <i type="logical" name="LDIPOL"> F  </i>
    <i type="logical" name="LMONO"> F  </i>
    <i type="int" name="IDIPOL">     0</i>
    <i name="EPSILON">      1.00000000</i>
    <v name="DIPOL">   -100.00000000   -100.00000000   -100.00000000</v>
    <i name="EFIELD">      0.00000000</i>
   </separator>
  </separator>
  <separator name="grids" >
   <i type="int" name="NGX">    48</i>
   <i type="int" name="NGY">    48</i>
   <i type="int" name="NGZ">   120</i>
   <i type="int" name="NGXF">    96</i>
   <i type="int" name="NGYF">    96</i>
   <i type="int" name="NGZF">   240</i>
   <i type="logical" name="ADDGRID"> F  </i>
  </separator>
  <separator name="ionic" >
   <i type="int" name="NSW">     0</i>
   <i type="int" name="IBRION">    -1</i>
   <i type="int" name="MDALGO">     0</i>
   <i type="int" name="ISIF">     2</i>
   <i name="PSTRESS">      0.00000000</i>
   <i name="EDIFFG">     -0.00000100</i>
   <i type="int" name="NFREE">     0</i>
   <i name="POTIM">      0.50000000</i>
   <i name="SMASS">     -3.00000000</i>
   <i name="SCALEE">      1.00000000</i>
  </separator>
  <separator name="ionic md" >
   <i name="TEBEG">      0.00010000</i>
   <i name="TEEND">      0.00010000</i>
   <i type="int" name="NBLOCK">     1</i>
   <i type="int" name="KBLOCK">     1</i>
   <i type="int" name="NPACO">   256</i>
   <i name="APACO">     10.00000000</i>
  </separator>
  <separator name="symmetry" >
   <i type="int" name="ISYM">     2</i>
   <i name="SYMPREC">      0.00001000</i>
  </separator>
  <separator name="dos" >
   <i type="int" name="LORBIT">     0</i>
   <v name="RWIGS">     -1.00000000</v>
   <i type="int" name="NEDOS">   301</i>
   <i name="EMIN">     10.00000000</i>
   <i name="EMAX">    -10.00000000</i>
   <i name="EFERMI">      0.00000000</i>
  </separator>
  <separator name="writing" >
   <i type="int" name="NWRITE">     2</i>
   <i type="logical" name="LWAVE"> F  </i>
   <i type="logical" name="LDOWNSAMPLE"> F  </i>
   <i type="logical" name="LCHARG"> F  </i>
   <i type="logical" name="LPARD"> F  </i>
   <i type="logical" name="LVTOT"> F  </i>
   <i type="logical" name="LVHAR"> F  </i>
   <i type="logical" name="LELF"> F  </i>
   <i type="logical" name="LOPTICS"> F  </i>
   <v name="STM">      0.00000000      0.00000000      0.00000000      0.00000000      0.00000000      0.00000000      0.00000000</v>
  </separator>
  <separator name="performance" >
   <i type="int" name="NPAR">     2</i>
   <i type="int" name="NSIM">     4</i>
   <i type="int" name="NBLK">    -1</i>
   <i type="logical" name="LPLANE"> T  </i>
   <i type="logical" name="LSCALAPACK"> T  </i>
   <i type="logical" name="LSCAAWARE"> F  </i>
   <i type="logical" name="LSCALU"> F  </i>
   <i type="logical" name="LASYNC"> F  </i>
   <i type="logical" name="LORBITALREAL"> F  </i>
  </separator>
  <separator name="miscellaneous" >
   <i type="int" name="IDIOT">     3</i>
   <i type="int" name="PHON_NSTRUCT">    -1</i>
   <i type="logical" name="LMUSIC"> F  </i>
   <v name="POMASS">     12.01100000</v>
   <v name="DARWINR">      0.00000000</v>
   <v name="DARWINV">      1.00000000</v>
   <i type="logical" name="LCORR"> T  </i>
  </separator>
  <i type="logical" name="GGA_COMPAT"> T  </i>
  <i type="logical" name="LBERRY"> F  </i>
  <i type="int" name="ICORELEVEL">     0</i>
  <i type="logical" name="LDAU"> F  </i>
  <i type="int" name="I_CONSTRAINED_M">     0</i>
  <separator name="electronic exchange-correlation" >
   <i type="string" name="GGA">--</i>
   <i type="int" name="VOSKOWN">     0</i>
   <i type="logical" name="LHFCALC"> F  </i>
   <i type="string" name="PRECFOCK"></i>
   <i type="logical" name="LSYMGRAD"> F  </i>
   <i type="logical" name="LHFONE"> F  </i>
   <i type="logical" name="LRHFCALC"> F  </i>
   <i type="logical" name="LTHOMAS"> F  </i>
   <i type="logical" name="LMODELHF"> F  </i>
   <i type="logical" name="LFOCKACE"> F  </i>
   <i name="ENCUT4O">     -1.00000000</i>
   <i type="int" name="EXXOEP">     0</i>
   <i type="int" name="FOURORBIT">     0</i>
   <i name="AEXX">      0.00000000</i>
   <i name="HFALPHA">      0.00000000</i>
   <i name="MCALPHA">      0.00000000</i>
   <i name="ALDAX">      1.00000000</i>
   <i name="AGGAX">      1.00000000</i>
   <i name="ALDAC">      1.00000000</i>
   <i name="AGGAC">      1.00000000</i>
   <i type="int" name="NKREDX">     1</i>
   <i type="int" name="NKREDY">     1</i>
   <i type="int" name="NKREDZ">     1</i>
   <i type="logical" name="SHIFTRED"> F  </i>
   <i type="logical" name="ODDONLY"> F  </i>
   <i type="logical" name="EVENONLY"> F  </i>
   <i type="int" name="LMAXFOCK">     0</i>
   <i type="int" name="NMAXFOCKAE">     0</i>
   <i type="logical" name="LFOCKAEDFT"> F  </i>
   <i name="HFSCREEN">      0.00000000</i>
   <i name="HFSCREENC">      0.00000000</i>
   <i type="int" name="NBANDSGWLOW">     0</i>
  </separator>
  <separator name="vdW DFT" >
   <i type="logical" name="LUSE_VDW"> F  </i>
   <i type="int" name="IVDW_NL">     1</i>
   <i type="logical" name="LSPIN_VDW"> F  </i>
   <i name="Zab_VDW">     -0.84910000</i>
   <i name="PARAM1">      0.12340000</i>
   <i name="PARAM2">      1.00000000</i>
   <i name="PARAM3">      0.00000000</i>
  </separator>
  <separator name="model GW" >
   <i type="int" name="MODEL_GW">     0</i>
   <i name="MODEL_EPS0">     31.63027863</i>
   <i name="MODEL_ALPHA">      1.00000000</i>
  </separator>
  <separator name="linear response parameters" >
   <i type="logical" name="LEPSILON"> F  </i>
   <i type="logical" name="LRPA"> F  </i>
   <i type="logical" name="LNABLA"> F  </i>
   <i type="logical" name="LVEL"> F  </i>
   <i name="CSHIFT">      0.10000000</i>
   <i name="OMEGAMAX">     -1.00000000</i>
   <i name="DEG_THRESHOLD">      0.00200000</i>
   <i name="RTIME">     -0.10000000</i>
   <i name="WPLASMAI">      0.00000000</i>
   <v name="DFIELD">      0.00000000      0.00000000      0.00000000</v>
   <v name="WPLASMA">      0.00000000      0.00000000      0.00000000      0.00000000      0.00000000      0.00000000      0.00000000      0.00000000      0.00000000</v>
  </separator>
  <separator name="orbital magnetization" >
   <i type="logical" name="NUCIND"> F  </i>
   <v name="MAGPOS">      0.00000000      0.00000000      0.00000000</v>
   <i type="logical" name="LNICSALL"> T  </i>
   <i type="logical" name="ORBITALMAG"> F  </i>
   <i type="logical" name="LMAGBLOCH"> F  </i>
   <i type="logical" name="LCHIMAG"> F  </i>
   <i type="logical" name="LGAUGE"> T  </i>
   <i type="int" name="MAGATOM">     0</i>
   <v name="MAGDIPOL">      0.00000000      0.00000000      0.00000000</v>
   <v name="AVECCONST">      0.00000000      0.00000000      0.00000000</v>
  </separator>
  <separator name="response functions" >
   <i type="logical" name="LALL_IN_ONE"> F  </i>
   <i type="int" name="IALL_IN_ONE">    -1</i>
   <i type="int" name="NBANDS_WAVE">    -1</i>
   <i type="logical" name="LFINITE_TEMPERATURE"> F  </i>
   <i type="logical" name="LADDER"> F  </i>
   <i type="logical" name="LRPAFORCE"> F  </i>
   <i type="logical" name="LFXC"> F  </i>
   <i type="logical" name="LHARTREE"> T  </i>
   <i type="int" name="IBSE">     0</i>
   <v type="int" name="KPOINT">    -1     0     0     0</v>
   <i type="logical" name="LTCTC"> F  </i>
   <i type="logical" name="LTCTE"> F  </i>
   <i type="logical" name="LTETE"> F  </i>
   <i type="logical" name="LTRIPLET"> F  </i>
   <i type="logical" name="LFXCEPS"> F  </i>
   <i type="logical" name="LFXHEG"> F  </i>
   <i type="int" name="NATURALO">     2</i>
   <i type="logical" name="LHOLEGF"> F  </i>
   <i type="logical" name="L2ORDER"> F  </i>
   <i type="logical" name="LDMP1"> F  </i>
   <i type="logical" name="LMP2LT"> F  </i>
   <i type="logical" name="LSMP2LT"> F  </i>
   <i type="logical" name="LGWLF"> F  </i>
   <i name="ENCUTGW">     -1.60000002</i>
   <i name="ENCUTGWSOFT">     -1.60000002</i>
   <i name="ENCUTLF">     -1.00000000</i>
   <i type="logical" name="LESF_SPLINES"> F  </i>
   <i type="int" name="LMAXMP2">    -1</i>
   <i name="SCISSOR">      0.00000000</i>
   <i type="int" name="NOMEGA">     0</i>
   <i type="int" name="NOMEGAR">     0</i>
   <i type="int" name="NBANDSGW">    -1</i>
   <i type="int" name="NBANDSO">    -1</i>
   <i type="int" name="NBANDSV">    -1</i>
   <i type="int" name="NELMGW">     1</i>
   <i type="int" name="NELMHF">     1</i>
   <i type="int" name="DIM">     3</i>
   <i type="int" name="IESPILON">     4</i>
   <i type="int" name="ANTIRES">     0</i>
   <i name="OMEGAMAX">    -30.00000000</i>
   <i name="OMEGAMIN">    -30.00000000</i>
   <i name="OMEGATL">   -200.00000000</i>
   <i type="int" name="OMEGAGRID">     0</i>
   <i name="CSHIFT">     -0.10000000</i>
   <i type="logical" name="LSELFENERGY"> F  </i>
   <i type="logical" name="LSPECTRAL"> F  </i>
   <i type="logical" name="LSPECTRALGW"> F  </i>
   <i type="logical" name="LSINGLES"> F  </i>
   <i type="logical" name="LFERMIGW"> F  </i>
   <i type="logical" name="ODDONLYGW"> F  </i>
   <i type="logical" name="EVENONLYGW"> F  </i>
   <i type="int" name="NKREDLFX">     1</i>
   <i type="int" name="NKREDLFY">     1</i>
   <i type="int" name="NKREDLFZ">     1</i>
   <i type="int" name="MAXMEM">  2800</i>
   <i type="int" name="TELESCOPE">     0</i>
   <i type="int" name="NTAUPAR">    -1</i>
   <i type="int" name="NOMEGAPAR">    -1</i>
   <i name="DAMP_NEWTON">      0.80000001</i>
   <i name="LAMBDA">      1.00000000</i>
  </separator>
  <separator name="External order field" >
   <i name="OFIELD_KAPPA">      0.00000000</i>
   <v name="OFIELD_K">      0.00000000      0.00000000      0.00000000</v>
   <i name="OFIELD_Q6_NEAR">      0.00000000</i>
   <i name="OFIELD_Q6_FAR">      0.00000000</i>
   <i name="OFIELD_A">      0.00000000</i>
  </separator>
  <separator name="optional k-points parameters" >
   <i type="int" name="KPOINTS_OPT_MODE">     1</i>
   <i type="logical" name="LKPOINTS_OPT"> F  </i>
  </separator>
 </parameters>
 <atominfo>
  <atoms>      18 </atoms>
  <types>       1 </types>
  <array name="atoms" >
   <dimension dim="1">ion</dimension>
   <field type="string">element</field>
   <field type="int">atomtype</field>
   <set>
    <rc><c>C </c><c>   1</c></rc>
    <rc><c>C </c><c>   1</c></rc>
    <rc><c>C </c><c>   1</c></rc>
    <rc><c>C </c><c>   1</c></rc>
    <rc><c>C </c><c>   1</c></rc>
    <rc><c>C </c><c>   1</c></rc>
    <rc><c>C </c><c>   1</c></rc>
    <rc><c>C </c><c>   1</c></rc>
    <rc><c>C </c><c>   1</c></rc>
    <rc><c>C </c><c>   1</c></rc>
    <rc><c>C </c><c>   1</c></rc>
    <rc><c>C </c><c>   1</c></rc>
    <rc><c>C </c><c>   1</c></rc>
    <rc><c>C </c><c>   1</c></rc>
    <rc><c>C </c><c>   1</c></rc>
    <rc><c>C </c><c>   1</c></rc>
    <rc><c>C </c><c>   1</c></rc>
    <rc><c>C </c><c>   1</c></rc>
   </set>
  </array>
  <array name="atomtypes" >
   <dimension dim="1">type</dimension>
   <field type="int">atomspertype</field>
   <field type="string">element</field>
   <field>mass</field>
   <field>valence</field>
   <field type="string">pseudopotential</field>
   <set>
    <rc><c>  18</c><c>C </c><c>     12.01100000</c><c>      4.00000000</c><c>  PAW_PBE C 08Apr2002                   </c></rc>
   </set>
  </array>
 </atominfo>
 <structure name="initialpos" >
  <crystal>
   <varray name="basis" >
    <v>       7.40170591       0.00000000       0.00000000 </v>
    <v>      -3.70085295       6.41006527       0.00000000 </v>
    <v>       0.00000000       0.00000000      20.00000000 </v>
   </varray>
   <i name="volume">    948.90835877 </i>
   <varray name="rec_basis" >
    <v>       0.13510399       0.07800233       0.00000000 </v>
    <v>       0.00000000       0.15600465       0.00000000 </v>
    <v>       0.00000000       0.00000000       0.05000000 </v>
   </varray>
  </crystal>
  <varray name="positions" >
   <v>       0.00078002       0.00156005       0.50000000 </v>
   <v>       0.33333333       0.00000000       0.50000000 </v>
   <v>       0.66666667       0.00000000       0.50000000 </v>
   <v>       0.00000000       0.33333333       0.50000000 </v>
   <v>       0.33333333       0.33333333       0.50000000 </v>
   <v>       0.66666667       0.33333333       0.50000000 </v>
   <v>       0.00000000       0.66666667       0.50000000 </v>
   <v>       0.33333333       0.66666667       0.50000000 </v>
   <v>       0.66666667       0.66666667       0.50000000 </v>
   <v>       0.22357326       0.11111111       0.50000000 </v>
   <v>       0.55555556       0.11111111       0.50000000 </v>
   <v>       0.88888889       0.11111111       0.50000000 </v>
   <v>       0.22222222       0.44444444       0.50000000 </v>
   <v>       0.55555556       0.44444444       0.50000000 </v>
   <v>       0.88888889       0.44444444       0.50000000 </v>
   <v>       0.22222222       0.77777778       0.50000000 </v>
   <v>       0.55555556       0.77777778       0.50000000 </v>
   <v>       0.88888889       0.77777778       0.50000000 </v>
  </varray>
 </structure>
 <calculation>
  <scstep>
   <time name="dav">    5.95    6.18</time>
   <time name="total">    6.04    6.27</time>
   <energy>
    <i name="alphaZ">     28.04858418 </i>
    <i name="ewald">  11638.86650436 </i>
    <i name="hartreedc"> -13553.17846418 </i>
    <i name="XCdc">    237.17757528 </i>
    <i name="pawpsdc">   1953.39683484 </i>
    <i name="pawaedc">  -1963.64613940 </i>
    <i name="eentropy">     -0.00830647 </i>
    <i name="bandstr">   -257.77805143 </i>
    <i name="atom">   2648.70517965 </i>
    <i name="e_fr_energy">    731.58371684 </i>
    <i name="e_wo_entrp">    731.59202331 </i>
    <i name="e_0_energy">    731.58787008 </i>
   </energy>
  </scstep>
  <scstep>
   <time name="dav">    7.93    7.03</time>
   <time name="total">    7.93    7.03</time>
   <energy>
    <i name="e_fr_energy">    -23.90727565 </i>
    <i name="e_wo_entrp">    -23.90700684 </i>
    <i name="e_0_energy">    -23.90714124 </i>
   </energy>
  </scstep>
  <scstep>
   <time name="dav">    6.41    6.66</time>
   <time name="total">    6.41    6.66</time>
   <energy>
    <i name="e_fr_energy">   -172.27541813 </i>
    <i name="e_wo_entrp">   -172.27415855 </i>
    <i name="e_0_energy">   -172.27478834 </i>
   </energy>
  </scstep>
  <scstep>
   <time name="dav">    6.27    6.51</time>
   <time name="total">    6.27    6.51</time>
   <energy>
    <i name="e_fr_energy">   -177.34717490 </i>
    <i name="e_wo_entrp">   -177.34506063 </i>
    <i name="e_0_energy">   -177.34611776 </i>
   </energy>
  </scstep>
  <scstep>
   <time name="dav">    7.17    7.45</time>
   <time name="total">    7.42    7.71</time>
   <energy>
    <i name="e_fr_energy">   -177.48408050 </i>
    <i name="e_wo_entrp">   -177.48195543 </i>
    <i name="e_0_energy">   -177.48301797 </i>
   </energy>
  </scstep>
  <scstep>
   <time name="dav">    5.99    5.01</time>
   <time name="total">    6.33    5.37</time>
   <energy>
    <i name="e_fr_energy">   -169.31670882 </i>
    <i name="e_wo_entrp">   -169.31453290 </i>
    <i name="e_0_energy">   -169.31562086 </i>
   </energy>
  </scstep>
  <scstep>
   <time name="dav">    5.90    6.12</time>
   <time name="total">    6.25    6.48</time>
   <energy>
    <i name="e_fr_energy">   -166.14896996 </i>
    <i name="e_wo_entrp">   -166.14677886 </i>
    <i name="e_0_energy">   -166.14787441 </i>
   </energy>
  </scstep>
  <scstep>
   <time name="dav">    6.11    6.34</time>
   <time name="total">    6.46    6.71</time>
   <energy>
    <i name="e_fr_energy">   -166.08605901 </i>
    <i name="e_wo_entrp">   -166.08387472 </i>
    <i name="e_0_energy">   -166.08496686 </i>
   </energy>
  </scstep>
  <scstep>
   <time name="dav">    6.66    6.92</time>
   <time name="total">    7.01    7.28</time>
   <energy>
    <i name="e_fr_energy">   -166.07317606 </i>
    <i name="e_wo_entrp">   -166.07098933 </i>
    <i name="e_0_energy">   -166.07208270 </i>
   </energy>
  </scstep>
  <scstep>
   <time name="dav">    5.77    6.00</time>
   <time name="total">    6.12    6.36</time>
   <energy>
    <i name="e_fr_energy">   -166.05462948 </i>
    <i name="e_wo_entrp">   -166.05244137 </i>
    <i name="e_0_energy">   -166.05353543 </i>
   </energy>
  </scstep>
  <scstep>
   <time name="dav">    5.76    4.79</time>
   <time name="total">    6.11    5.16</time>
   <energy>
    <i name="e_fr_energy">   -166.05806947 </i>
    <i name="e_wo_entrp">   -166.05588286 </i>
    <i name="e_0_energy">   -166.05697617 </i>
   </energy>
  </scstep>
  <scstep>
   <time name="dav">    5.75    5.96</time>
   <time name="total">    6.10    6.33</time>
   <energy>
    <i name="e_fr_energy">   -166.06277880 </i>
    <i name="e_wo_entrp">   -166.06059195 </i>
    <i name="e_0_energy">   -166.06168538 </i>
   </energy>
  </scstep>
  <scstep>
   <time name="dav">    5.81    6.03</time>
   <time name="total">    6.16    6.39</time>
   <energy>
    <i name="e_fr_energy">   -166.06684290 </i>
    <i name="e_wo_entrp">   -166.06465555 </i>
    <i name="e_0_energy">   -166.06574923 </i>
   </energy>
  </scstep>
  <scstep>
   <time name="dav">    5.62    5.84</time>
   <time name="total">    5.97    6.20</time>
   <energy>
    <i name="e_fr_energy">   -166.07083498 </i>
    <i name="e_wo_entrp">   -166.06864775 </i>
    <i name="e_0_energy">   -166.06974136 </i>
   </energy>
  </scstep>
  <scstep>
   <time name="dav">    5.89    6.12</time>
   <time name="total">    6.25    6.49</time>
   <energy>
    <i name="e_fr_energy">   -166.07203043 </i>
    <i name="e_wo_entrp">   -166.06984319 </i>
    <i name="e_0_energy">   -166.07093681 </i>
   </energy>
  </scstep>
  <scstep>
   <time name="dav">    5.98    5.00</time>
   <time name="total">    6.34    5.38</time>
   <energy>
    <i name="e_fr_energy">   -166.07218885 </i>
    <i name="e_wo_entrp">   -166.07000160 </i>
    <i name="e_0_energy">   -166.07109522 </i>
   </energy>
  </scstep>
  <scstep>
   <time name="dav">    5.75    5.97</time>
   <time name="total">    6.11    6.34</time>
   <energy>
    <i name="e_fr_energy">   -166.07239040 </i>
    <i name="e_wo_entrp">   -166.07020324 </i>
    <i name="e_0_energy">   -166.07129682 </i>
   </energy>
  </scstep>
  <scstep>
   <time name="dav">    5.07    5.26</time>
   <time name="total">    5.43    5.63</time>
   <energy>
    <i name="e_fr_energy">   -166.07243664 </i>
    <i name="e_wo_entrp">   -166.07024941 </i>
    <i name="e_0_energy">   -166.07134303 </i>
   </energy>
  </scstep>
  <scstep>
   <time name="dav">    5.00    5.20</time>
   <time name="total">    5.35    5.56</time>
   <energy>
    <i name="e_fr_energy">   -166.07247202 </i>
    <i name="e_wo_entrp">   -166.07028478 </i>
    <i name="e_0_energy">   -166.07137840 </i>
   </energy>
  </scstep>
  <scstep>
   <time name="dav">    4.84    5.03</time>
   <time name="total">    5.19    5.40</time>
   <energy>
    <i name="e_fr_energy">   -166.07249646 </i>
    <i name="e_wo_entrp">   -166.07030925 </i>
    <i name="e_0_energy">   -166.07140286 </i>
   </energy>
  </scstep>
  <scstep>
   <time name="dav">    3.99    4.15</time>
   <time name="total">    4.34    4.52</time>
   <energy>
    <i name="e_fr_energy">   -166.07250519 </i>
    <i name="e_wo_entrp">   -166.07031796 </i>
    <i name="e_0_energy">   -166.07141158 </i>
   </energy>
  </scstep>
  <scstep>
   <time name="dav">    3.92    4.07</time>
   <time name="total">    4.29    3.24</time>
   <energy>
    <i name="e_fr_energy">   -166.07250808 </i>
    <i name="e_wo_entrp">   -166.07032087 </i>
    <i name="e_0_energy">   -166.07141448 </i>
   </energy>
  </scstep>
  <scstep>
   <time name="dav">    4.09    4.25</time>
   <time name="total">    4.18    4.34</time>
   <energy>
    <i name="alphaZ">     28.04858418 </i>
    <i name="ewald">  11638.86650436 </i>
    <i name="hartreedc"> -13861.51621685 </i>
    <i name="XCdc">    247.81411085 </i>
    <i name="pawpsdc">   7452.86449029 </i>
    <i name="pawaedc">  -7465.12787178 </i>
    <i name="eentropy">     -0.00218721 </i>
    <i name="bandstr">   -855.72510183 </i>
    <i name="atom">   2648.70517965 </i>
    <i name="e_fr_energy">   -166.07250834 </i>
    <i name="e_wo_entrp">   -166.07032113 </i>
    <i name="e_0_energy">   -166.07141473 </i>
   </energy>
  </scstep>
  <structure>
   <crystal>
    <varray name="basis" >
     <v>       7.40170591       0.00000000       0.00000000 </v>
     <v>      -3.70085295       6.41006527       0.00000000 </v>
     <v>       0.00000000       0.00000000      20.00000000 </v>
    </varray>
    <i name="volume">    948.90835877 </i>
    <varray name="rec_basis" >
     <v>       0.13510399       0.07800233       0.00000000 </v>
     <v>       0.00000000       0.15600465       0.00000000 </v>
     <v>       0.00000000       0.00000000       0.05000000 </v>
    </varray>
   </crystal>
   <varray name="positions" >
    <v>       0.00078002       0.00156005       0.50000000 </v>
    <v>       0.33333333       0.00000000       0.50000000 </v>
    <v>       0.66666667       0.00000000       0.50000000 </v>
    <v>       0.00000000       0.33333333       0.50000000 </v>
    <v>       0.33333333       0.33333333       0.50000000 </v>
    <v>       0.66666667       0.33333333       0.50000000 </v>
    <v>       0.00000000       0.66666667       0.50000000 </v>
    <v>       0.33333333       0.66666667       0.50000000 </v>
    <v>       0.66666667       0.66666667       0.50000000 </v>
    <v>       0.22357326       0.11111111       0.50000000 </v>
    <v>       0.55555556       0.11111111       0.50000000 </v>
    <v>       0.88888889       0.11111111       0.50000000 </v>
    <v>       0.22222222       0.44444444       0.50000000 </v>
    <v>       0.55555556       0.44444444       0.50000000 </v>
    <v>       0.88888889       0.44444444       0.50000000 </v>
    <v>       0.22222222       0.77777778       0.50000000 </v>
    <v>       0.55555556       0.77777778       0.50000000 </v>
    <v>       0.88888889       0.77777778       0.50000000 </v>
   </varray>
  </structure>
  <varray name="forces" >
   <v>       0.20403588      -0.53492224      -0.00000000 </v>
   <v>       0.22121780      -0.08270306       0.00000000 </v>
   <v>      -0.01476766      -0.02419318      -0.00000000 </v>
   <v>      -0.03743590       0.05527623       0.00000000 </v>
   <v>       0.12680968       0.03131470       0.00000000 </v>
   <v>      -0.01827064       0.00725909      -0.00000000 </v>
   <v>      -0.02377514       0.03158472       0.00000000 </v>
   <v>      -0.01917790       0.02000263       0.00000000 </v>
   <v>       0.02651652       0.04185372       0.00000000 </v>
   <v>      -0.54984998       0.14516339      -0.00000000 </v>
   <v>       0.05118149      -0.01149117      -0.00000000 </v>
   <v>      -0.00621790       0.12595021       0.00000000 </v>
   <v>      -0.00550742      -0.05011684       0.00000000 </v>
   <v>       0.00485406       0.01167998       0.00000000 </v>
   <v>       0.02054901      -0.00733355       0.00000000 </v>
   <v>       0.01741767      -0.03794182       0.00000000 </v>
   <v>       0.00782390       0.00819823       0.00000000 </v>
   <v>      -0.00540348       0.27041896       0.00000000 </v>
  </varray>
  <varray name="stress" >
   <v>      -0.08792874      -0.06901048       0.00000000 </v>
   <v>      -0.06901048      -0.20908255       0.00000000 </v>
   <v>       0.00000000       0.00000000      -0.56277976 </v>
  </varray>
  <energy>
   <i name="e_fr_energy">   -166.07250834 </i>
   <i name="e_wo_entrp">   -166.07032113 </i>
   <i name="e_0_energy">   -166.07141473 </i>
  </energy>
  <time name="totalsc">  143.27  142.76</time>
  <eigenvalues>
   <array>
    <dimension dim="1">band</dimension>
    <dimension dim="2">kpoint</dimension>
    <dimension dim="3">spin</dimension>
    <field>eigene</field>
    <field>occ</field>
    <set>
     <set comment="spin 1">
      <set comment="kpoint 1">
       <r>  -22.2560    1.0000 </r>
       <r>  -19.6974    1.0000 </r>
       <r>  -19.6790    1.0000 </r>
       <r>  -19.6748    1.0000 </r>
       <r>  -19.6734    1.0000 </r>
       <r>  -19.6715    1.0000 </r>
       <r>  -19.6444    1.0000 </r>
       <r>  -15.3579    1.0000 </r>
       <r>  -15.3456    1.0000 </r>
       <r>  -15.3360    1.0000 </r>
       <r>  -15.3237    1.0000 </r>
       <r>  -13.2913    1.0000 </r>
       <r>  -13.2886    1.0000 </r>
       <r>  -12.3977    1.0000 </r>
       <r>  -12.3921    1.0000 </r>
       <r>  -12.3818    1.0000 </r>
       <r>  -12.3714    1.0000 </r>
       <r>  -12.3563    1.0000 </r>
       <r>  -12.3482    1.0000 </r>
       <r>  -10.3600    1.0000 </r>
       <r>   -8.5586    1.0000 </r>
       <r>   -8.5360    1.0000 </r>
       <r>   -8.5249    1.0000 </r>
       <r>   -8.5227    1.0000 </r>
       <r>   -8.5153    1.0000 </r>
       <r>   -8.4834    1.0000 </r>
       <r>   -7.3906    1.0000 </r>
       <r>   -7.3780    1.0000 </r>
       <r>   -7.3718    1.0000 </r>
       <r>   -7.3700    1.0000 </r>
       <r>   -7.3694    1.0000 </r>
       <r>   -7.3457    1.0000 </r>
       <r>   -5.8073    1.0000 </r>
       <r>   -5.7608    1.0000 </r>
       <r>   -2.7702    0.6638 </r>
       <r>   -2.7614    0.5690 </r>
       <r>   -2.7491    0.4305 </r>
       <r>   -2.7403    0.3366 </r>
       <r>    0.5196    0.0000 </r>
       <r>    1.3120    0.0000 </r>
       <r>    1.6357    0.0000 </r>
       <r>    2.1119    0.0000 </r>
       <r>    2.1396    0.0000 </r>
       <r>    2.1435    0.0000 </r>
       <r>    2.1513    0.0000 </r>
       <r>    2.1694    0.0000 </r>
      </set>
      <set comment="kpoint 2">
       <r>  -22.2024    1.0000 </r>
       <r>  -20.3492    1.0000 </r>
       <r>  -19.9872    1.0000 </r>
       <r>  -19.9818    1.0000 </r>
       <r>  -19.2655    1.0000 </r>
       <r>  -19.2594    1.0000 </r>
       <r>  -18.9059    1.0000 </r>
       <r>  -15.9999    1.0000 </r>
       <r>  -15.9906    1.0000 </r>
       <r>  -14.9234    1.0000 </r>
       <r>  -14.9038    1.0000 </r>
       <r>  -13.5960    1.0000 </r>
       <r>  -12.9807    1.0000 </r>
       <r>  -12.9705    1.0000 </r>
       <r>  -12.9571    1.0000 </r>
       <r>  -12.9461    1.0000 </r>
       <r>  -11.7443    1.0000 </r>
       <r>  -11.7292    1.0000 </r>
       <r>  -11.1146    1.0000 </r>
       <r>  -10.2960    1.0000 </r>
       <r>   -8.8745    1.0000 </r>
       <r>   -8.8560    1.0000 </r>
       <r>   -8.8276    1.0000 </r>
       <r>   -8.5174    1.0000 </r>
       <r>   -8.4970    1.0000 </r>
       <r>   -8.1340    1.0000 </r>
       <r>   -8.1277    1.0000 </r>
       <r>   -7.7161    1.0000 </r>
       <r>   -7.7104    1.0000 </r>
       <r>   -6.9263    1.0000 </r>
       <r>   -6.9184    1.0000 </r>
       <r>   -6.5580    1.0000 </r>
       <r>   -6.0035    1.0000 </r>
       <r>   -5.9006    1.0000 </r>
       <r>   -3.5355    1.0000 </r>
       <r>   -3.5176    1.0000 </r>
       <r>   -2.0158    0.0000 </r>
       <r>   -1.9937    0.0000 </r>
       <r>    0.5923    0.0000 </r>
       <r>    0.8777    0.0000 </r>
       <r>    1.3856    0.0000 </r>
       <r>    1.4637    0.0000 </r>
       <r>    1.4821    0.0000 </r>
       <r>    1.7102    0.0000 </r>
       <r>    2.6299    0.0000 </r>
       <r>    2.7540    0.0000 </r>
      </set>
      <set comment="kpoint 3">
       <r>  -22.2024    1.0000 </r>
       <r>  -20.3491    1.0000 </r>
       <r>  -19.9934    1.0000 </r>
       <r>  -19.9756    1.0000 </r>
       <r>  -19.2717    1.0000 </r>
       <r>  -19.2534    1.0000 </r>
       <r>  -18.9057    1.0000 </r>
       <r>  -16.0060    1.0000 </r>
       <r>  -15.9840    1.0000 </r>
       <r>  -14.9228    1.0000 </r>
       <r>  -14.9054    1.0000 </r>
       <r>  -13.5927    1.0000 </r>
       <r>  -12.9832    1.0000 </r>
       <r>  -12.9713    1.0000 </r>
       <r>  -12.9560    1.0000 </r>
       <r>  -12.9466    1.0000 </r>
       <r>  -11.7447    1.0000 </r>
       <r>  -11.7334    1.0000 </r>
       <r>  -11.1103    1.0000 </r>
       <r>  -10.2960    1.0000 </r>
       <r>   -8.8739    1.0000 </r>
       <r>   -8.8506    1.0000 </r>
       <r>   -8.8343    1.0000 </r>
       <r>   -8.5144    1.0000 </r>
       <r>   -8.4929    1.0000 </r>
       <r>   -8.1402    1.0000 </r>
       <r>   -8.1284    1.0000 </r>
       <r>   -7.7209    1.0000 </r>
       <r>   -7.7042    1.0000 </r>
       <r>   -6.9300    1.0000 </r>
       <r>   -6.9136    1.0000 </r>
       <r>   -6.5600    1.0000 </r>
       <r>   -5.9918    1.0000 </r>
       <r>   -5.9123    1.0000 </r>
       <r>   -3.5340    1.0000 </r>
       <r>   -3.5187    1.0000 </r>
       <r>   -2.0130    0.0000 </r>
       <r>   -1.9968    0.0000 </r>
       <r>    0.5923    0.0000 </r>
       <r>    0.8826    0.0000 </r>
       <r>    1.3856    0.0000 </r>
       <r>    1.4604    0.0000 </r>
       <r>    1.4823    0.0000 </r>
       <r>    1.7102    0.0000 </r>
       <r>    2.6299    0.0000 </r>
       <r>    2.7464    0.0000 </r>
      </set>
      <set comment="kpoint 4">
       <r>  -22.2025    1.0000 </r>
       <r>  -20.3497    1.0000 </r>
       <r>  -19.9906    1.0000 </r>
       <r>  -19.9775    1.0000 </r>
       <r>  -19.2693    1.0000 </r>
       <r>  -19.2556    1.0000 </r>
       <r>  -18.9061    1.0000 </r>
       <r>  -16.0038    1.0000 </r>
       <r>  -15.9880    1.0000 </r>
       <r>  -14.9165    1.0000 </r>
       <r>  -14.9077    1.0000 </r>
       <r>  -13.6052    1.0000 </r>
       <r>  -12.9765    1.0000 </r>
       <r>  -12.9717    1.0000 </r>
       <r>  -12.9519    1.0000 </r>
       <r>  -12.9476    1.0000 </r>
       <r>  -11.7329    1.0000 </r>
       <r>  -11.7268    1.0000 </r>
       <r>  -11.1269    1.0000 </r>
       <r>  -10.2960    1.0000 </r>
       <r>   -8.8768    1.0000 </r>
       <r>   -8.8628    1.0000 </r>
       <r>   -8.8174    1.0000 </r>
       <r>   -8.5213    1.0000 </r>
       <r>   -8.5101    1.0000 </r>
       <r>   -8.1256    1.0000 </r>
       <r>   -8.1185    1.0000 </r>
       <r>   -7.7210    1.0000 </r>
       <r>   -7.7088    1.0000 </r>
       <r>   -6.9299    1.0000 </r>
       <r>   -6.9182    1.0000 </r>
       <r>   -6.5525    1.0000 </r>
       <r>   -6.0260    1.0000 </r>
       <r>   -5.8777    1.0000 </r>
       <r>   -3.5309    1.0000 </r>
       <r>   -3.5232    1.0000 </r>
       <r>   -2.0071    0.0000 </r>
       <r>   -2.0011    0.0000 </r>
       <r>    0.5923    0.0000 </r>
       <r>    0.8644    0.0000 </r>
       <r>    1.3856    0.0000 </r>
       <r>    1.4704    0.0000 </r>
       <r>    1.4841    0.0000 </r>
       <r>    1.7102    0.0000 </r>
       <r>    2.6299    0.0000 </r>
       <r>    2.7583    0.0000 </r>
      </set>
      <set comment="kpoint 5">
       <r>  -22.0419    1.0000 </r>
       <r>  -20.9267    1.0000 </r>
       <r>  -20.1957    1.0000 </r>
       <r>  -20.1902    1.0000 </r>
       <r>  -18.7583    1.0000 </r>
       <r>  -18.7523    1.0000 </r>
       <r>  -18.0630    1.0000 </r>
       <r>  -16.7485    1.0000 </r>
       <r>  -16.7417    1.0000 </r>
       <r>  -14.7520    1.0000 </r>
       <r>  -14.6333    1.0000 </r>
       <r>  -14.6160    1.0000 </r>
       <r>  -13.5073    1.0000 </r>
       <r>  -13.4929    1.0000 </r>
       <r>  -12.1920    1.0000 </r>
       <r>  -12.1751    1.0000 </r>
       <r>  -11.1075    1.0000 </r>
       <r>  -11.0930    1.0000 </r>
       <r>  -10.1048    1.0000 </r>
       <r>   -9.8572    1.0000 </r>
       <r>   -9.5038    1.0000 </r>
       <r>   -9.4845    1.0000 </r>
       <r>   -9.0408    1.0000 </r>
       <r>   -8.7921    1.0000 </r>
       <r>   -8.7674    1.0000 </r>
       <r>   -8.7494    1.0000 </r>
       <r>   -7.9470    1.0000 </r>
       <r>   -7.9418    1.0000 </r>
       <r>   -7.6747    1.0000 </r>
       <r>   -6.6178    1.0000 </r>
       <r>   -6.3818    1.0000 </r>
       <r>   -6.3726    1.0000 </r>
       <r>   -6.2206    1.0000 </r>
       <r>   -5.7667    1.0000 </r>
       <r>   -4.3064    1.0000 </r>
       <r>   -4.2910    1.0000 </r>
       <r>   -1.2946    0.0000 </r>
       <r>   -1.2715    0.0000 </r>
       <r>   -0.2343    0.0000 </r>
       <r>    0.7770    0.0000 </r>
       <r>    0.7974    0.0000 </r>
       <r>    0.8102    0.0000 </r>
       <r>    1.6063    0.0000 </r>
       <r>    1.9336    0.0000 </r>
       <r>    2.3341    0.0000 </r>
       <r>    2.8513    0.0000 </r>
      </set>
      <set comment="kpoint 6">
       <r>  -22.0419    1.0000 </r>
       <r>  -20.9266    1.0000 </r>
       <r>  -20.2018    1.0000 </r>
       <r>  -20.1842    1.0000 </r>
       <r>  -18.7648    1.0000 </r>
       <r>  -18.7459    1.0000 </r>
       <r>  -18.0631    1.0000 </r>
       <r>  -16.7555    1.0000 </r>
       <r>  -16.7342    1.0000 </r>
       <r>  -14.7481    1.0000 </r>
       <r>  -14.6326    1.0000 </r>
       <r>  -14.6190    1.0000 </r>
       <r>  -13.5071    1.0000 </r>
       <r>  -13.4961    1.0000 </r>
       <r>  -12.1912    1.0000 </r>
       <r>  -12.1744    1.0000 </r>
       <r>  -11.1092    1.0000 </r>
       <r>  -11.0981    1.0000 </r>
       <r>  -10.1048    1.0000 </r>
       <r>   -9.8525    1.0000 </r>
       <r>   -9.5037    1.0000 </r>
       <r>   -9.4806    1.0000 </r>
       <r>   -9.0459    1.0000 </r>
       <r>   -8.7925    1.0000 </r>
       <r>   -8.7627    1.0000 </r>
       <r>   -8.7450    1.0000 </r>
       <r>   -7.9521    1.0000 </r>
       <r>   -7.9354    1.0000 </r>
       <r>   -7.6813    1.0000 </r>
       <r>   -6.6084    1.0000 </r>
       <r>   -6.3848    1.0000 </r>
       <r>   -6.3686    1.0000 </r>
       <r>   -6.2304    1.0000 </r>
       <r>   -5.7699    1.0000 </r>
       <r>   -4.3062    1.0000 </r>
       <r>   -4.2907    1.0000 </r>
       <r>   -1.2921    0.0000 </r>
       <r>   -1.2749    0.0000 </r>
       <r>   -0.2281    0.0000 </r>
       <r>    0.7755    0.0000 </r>
       <r>    0.7962    0.0000 </r>
       <r>    0.8102    0.0000 </r>
       <r>    1.6063    0.0000 </r>
       <r>    1.9336    0.0000 </r>
       <r>    2.3341    0.0000 </r>
       <r>    2.8512    0.0000 </r>
      </set>
      <set comment="kpoint 7">
       <r>  -22.0420    1.0000 </r>
       <r>  -20.9270    1.0000 </r>
       <r>  -20.1989    1.0000 </r>
       <r>  -20.1859    1.0000 </r>
       <r>  -18.7625    1.0000 </r>
       <r>  -18.7484    1.0000 </r>
       <r>  -18.0626    1.0000 </r>
       <r>  -16.7535    1.0000 </r>
       <r>  -16.7378    1.0000 </r>
       <r>  -14.7612    1.0000 </r>
       <r>  -14.6250    1.0000 </r>
       <r>  -14.6195    1.0000 </r>
       <r>  -13.4991    1.0000 </r>
       <r>  -13.4939    1.0000 </r>
       <r>  -12.1905    1.0000 </r>
       <r>  -12.1805    1.0000 </r>
       <r>  -11.0935    1.0000 </r>
       <r>  -11.0873    1.0000 </r>
       <r>  -10.1046    1.0000 </r>
       <r>   -9.8720    1.0000 </r>
       <r>   -9.5064    1.0000 </r>
       <r>   -9.4919    1.0000 </r>
       <r>   -9.0282    1.0000 </r>
       <r>   -8.7908    1.0000 </r>
       <r>   -8.7749    1.0000 </r>
       <r>   -8.7646    1.0000 </r>
       <r>   -7.9523    1.0000 </r>
       <r>   -7.9400    1.0000 </r>
       <r>   -7.6573    1.0000 </r>
       <r>   -6.6412    1.0000 </r>
       <r>   -6.3844    1.0000 </r>
       <r>   -6.3732    1.0000 </r>
       <r>   -6.1963    1.0000 </r>
       <r>   -5.7580    1.0000 </r>
       <r>   -4.3041    1.0000 </r>
       <r>   -4.2952    1.0000 </r>
       <r>   -1.2852    0.0000 </r>
       <r>   -1.2785    0.0000 </r>
       <r>   -0.2512    0.0000 </r>
       <r>    0.7846    0.0000 </r>
       <r>    0.7966    0.0000 </r>
       <r>    0.8103    0.0000 </r>
       <r>    1.6064    0.0000 </r>
       <r>    1.9336    0.0000 </r>
       <r>    2.3341    0.0000 </r>
       <r>    2.8513    0.0000 </r>
      </set>
      <set comment="kpoint 8">
       <r>  -21.7752    1.0000 </r>
       <r>  -21.4026    1.0000 </r>
       <r>  -20.3002    1.0000 </r>
       <r>  -20.2947    1.0000 </r>
       <r>  -18.1612    1.0000 </r>
       <r>  -18.1553    1.0000 </r>
       <r>  -17.4844    1.0000 </r>
       <r>  -17.4782    1.0000 </r>
       <r>  -17.2296    1.0000 </r>
       <r>  -15.7431    1.0000 </r>
       <r>  -14.3311    1.0000 </r>
       <r>  -14.3153    1.0000 </r>
       <r>  -13.9587    1.0000 </r>
       <r>  -13.9440    1.0000 </r>
       <r>  -11.2673    1.0000 </r>
       <r>  -11.2494    1.0000 </r>
       <r>  -10.6061    1.0000 </r>
       <r>  -10.5962    1.0000 </r>
       <r>  -10.3358    1.0000 </r>
       <r>  -10.3174    1.0000 </r>
       <r>   -9.7880    1.0000 </r>
       <r>   -9.3485    1.0000 </r>
       <r>   -9.1469    1.0000 </r>
       <r>   -9.0917    1.0000 </r>
       <r>   -9.0810    1.0000 </r>
       <r>   -8.6422    1.0000 </r>
       <r>   -8.0633    1.0000 </r>
       <r>   -8.0583    1.0000 </r>
       <r>   -7.5343    1.0000 </r>
       <r>   -7.1724    1.0000 </r>
       <r>   -6.6678    1.0000 </r>
       <r>   -5.7522    1.0000 </r>
       <r>   -5.7414    1.0000 </r>
       <r>   -5.2009    1.0000 </r>
       <r>   -5.0534    1.0000 </r>
       <r>   -5.0401    1.0000 </r>
       <r>   -0.9656    0.0000 </r>
       <r>   -0.5968    0.0000 </r>
       <r>   -0.5737    0.0000 </r>
       <r>    0.0907    0.0000 </r>
       <r>    0.1125    0.0000 </r>
       <r>    1.1735    0.0000 </r>
       <r>    1.6817    0.0000 </r>
       <r>    1.9737    0.0000 </r>
       <r>    2.3060    0.0000 </r>
       <r>    2.4866    0.0000 </r>
      </set>
      <set comment="kpoint 9">
       <r>  -21.7751    1.0000 </r>
       <r>  -21.4026    1.0000 </r>
       <r>  -20.3063    1.0000 </r>
       <r>  -20.2888    1.0000 </r>
       <r>  -18.1680    1.0000 </r>
       <r>  -18.1485    1.0000 </r>
       <r>  -17.4913    1.0000 </r>
       <r>  -17.4709    1.0000 </r>
       <r>  -17.2312    1.0000 </r>
       <r>  -15.7384    1.0000 </r>
       <r>  -14.3300    1.0000 </r>
       <r>  -14.3181    1.0000 </r>
       <r>  -13.9584    1.0000 </r>
       <r>  -13.9473    1.0000 </r>
       <r>  -11.2671    1.0000 </r>
       <r>  -11.2472    1.0000 </r>
       <r>  -10.6105    1.0000 </r>
       <r>  -10.6023    1.0000 </r>
       <r>  -10.3361    1.0000 </r>
       <r>  -10.3147    1.0000 </r>
       <r>   -9.7881    1.0000 </r>
       <r>   -9.3488    1.0000 </r>
       <r>   -9.1537    1.0000 </r>
       <r>   -9.0846    1.0000 </r>
       <r>   -9.0739    1.0000 </r>
       <r>   -8.6354    1.0000 </r>
       <r>   -8.0685    1.0000 </r>
       <r>   -8.0518    1.0000 </r>
       <r>   -7.5263    1.0000 </r>
       <r>   -7.1798    1.0000 </r>
       <r>   -6.6763    1.0000 </r>
       <r>   -5.7543    1.0000 </r>
       <r>   -5.7384    1.0000 </r>
       <r>   -5.2055    1.0000 </r>
       <r>   -5.0543    1.0000 </r>
       <r>   -5.0385    1.0000 </r>
       <r>   -0.9580    0.0000 </r>
       <r>   -0.5951    0.0000 </r>
       <r>   -0.5766    0.0000 </r>
       <r>    0.0908    0.0000 </r>
       <r>    0.1103    0.0000 </r>
       <r>    1.1735    0.0000 </r>
       <r>    1.6817    0.0000 </r>
       <r>    1.9737    0.0000 </r>
       <r>    2.3060    0.0000 </r>
       <r>    2.4866    0.0000 </r>
      </set>
      <set comment="kpoint 10">
       <r>  -21.7752    1.0000 </r>
       <r>  -21.4030    1.0000 </r>
       <r>  -20.3035    1.0000 </r>
       <r>  -20.2905    1.0000 </r>
       <r>  -18.1659    1.0000 </r>
       <r>  -18.1514    1.0000 </r>
       <r>  -17.4893    1.0000 </r>
       <r>  -17.4744    1.0000 </r>
       <r>  -17.2251    1.0000 </r>
       <r>  -15.7557    1.0000 </r>
       <r>  -14.3224    1.0000 </r>
       <r>  -14.3176    1.0000 </r>
       <r>  -13.9508    1.0000 </r>
       <r>  -13.9457    1.0000 </r>
       <r>  -11.2676    1.0000 </r>
       <r>  -11.2550    1.0000 </r>
       <r>  -10.5882    1.0000 </r>
       <r>  -10.5824    1.0000 </r>
       <r>  -10.3381    1.0000 </r>
       <r>  -10.3237    1.0000 </r>
       <r>   -9.7875    1.0000 </r>
       <r>   -9.3478    1.0000 </r>
       <r>   -9.1365    1.0000 </r>
       <r>   -9.1085    1.0000 </r>
       <r>   -9.0973    1.0000 </r>
       <r>   -8.6591    1.0000 </r>
       <r>   -8.0688    1.0000 </r>
       <r>   -8.0564    1.0000 </r>
       <r>   -7.5542    1.0000 </r>
       <r>   -7.1535    1.0000 </r>
       <r>   -6.6454    1.0000 </r>
       <r>   -5.7536    1.0000 </r>
       <r>   -5.7430    1.0000 </r>
       <r>   -5.1886    1.0000 </r>
       <r>   -5.0529    1.0000 </r>
       <r>   -5.0425    1.0000 </r>
       <r>   -0.9872    0.0000 </r>
       <r>   -0.5871    0.0000 </r>
       <r>   -0.5790    0.0000 </r>
       <r>    0.0991    0.0000 </r>
       <r>    0.1093    0.0000 </r>
       <r>    1.1735    0.0000 </r>
       <r>    1.6817    0.0000 </r>
       <r>    1.9738    0.0000 </r>
       <r>    2.3060    0.0000 </r>
       <r>    2.4868    0.0000 </r>
      </set>
      <set comment="kpoint 11">
       <r>  -22.0954    1.0000 </r>
       <r>  -20.6157    1.0000 </r>
       <r>  -20.6064    1.0000 </r>
       <r>  -19.5294    1.0000 </r>
       <r>  -19.5101    1.0000 </r>
       <r>  -18.4598    1.0000 </r>
       <r>  -18.4498    1.0000 </r>
       <r>  -16.7796    1.0000 </r>
       <r>  -16.1551    1.0000 </r>
       <r>  -15.2541    1.0000 </r>
       <r>  -14.2465    1.0000 </r>
       <r>  -14.1666    1.0000 </r>
       <r>  -14.1427    1.0000 </r>
       <r>  -12.6139    1.0000 </r>
       <r>  -12.3177    1.0000 </r>
       <r>  -12.3140    1.0000 </r>
       <r>  -12.2622    1.0000 </r>
       <r>  -10.4982    1.0000 </r>
       <r>  -10.4676    1.0000 </r>
       <r>  -10.1685    1.0000 </r>
       <r>   -9.1804    1.0000 </r>
       <r>   -9.1572    1.0000 </r>
       <r>   -9.1348    1.0000 </r>
       <r>   -9.1170    1.0000 </r>
       <r>   -8.4300    1.0000 </r>
       <r>   -8.4229    1.0000 </r>
       <r>   -8.0931    1.0000 </r>
       <r>   -8.0650    1.0000 </r>
       <r>   -7.1978    1.0000 </r>
       <r>   -7.1789    1.0000 </r>
       <r>   -6.3871    1.0000 </r>
       <r>   -6.1526    1.0000 </r>
       <r>   -6.1098    1.0000 </r>
       <r>   -6.1052    1.0000 </r>
       <r>   -4.2641    1.0000 </r>
       <r>   -3.8889    1.0000 </r>
       <r>   -1.7246    0.0000 </r>
       <r>   -1.2555    0.0000 </r>
       <r>    0.2736    0.0000 </r>
       <r>    0.2862    0.0000 </r>
       <r>    0.7376    0.0000 </r>
       <r>    1.5328    0.0000 </r>
       <r>    1.8591    0.0000 </r>
       <r>    1.9912    0.0000 </r>
       <r>    2.0169    0.0000 </r>
       <r>    2.7775    0.0000 </r>
      </set>
      <set comment="kpoint 12">
       <r>  -22.0954    1.0000 </r>
       <r>  -20.6188    1.0000 </r>
       <r>  -20.6035    1.0000 </r>
       <r>  -19.5245    1.0000 </r>
       <r>  -19.5142    1.0000 </r>
       <r>  -18.4631    1.0000 </r>
       <r>  -18.4468    1.0000 </r>
       <r>  -16.7787    1.0000 </r>
       <r>  -16.1633    1.0000 </r>
       <r>  -15.2368    1.0000 </r>
       <r>  -14.2581    1.0000 </r>
       <r>  -14.1692    1.0000 </r>
       <r>  -14.1496    1.0000 </r>
       <r>  -12.6027    1.0000 </r>
       <r>  -12.3135    1.0000 </r>
       <r>  -12.3008    1.0000 </r>
       <r>  -12.2685    1.0000 </r>
       <r>  -10.5017    1.0000 </r>
       <r>  -10.4734    1.0000 </r>
       <r>  -10.1684    1.0000 </r>
       <r>   -9.1966    1.0000 </r>
       <r>   -9.1662    1.0000 </r>
       <r>   -9.1300    1.0000 </r>
       <r>   -9.1105    1.0000 </r>
       <r>   -8.4321    1.0000 </r>
       <r>   -8.4200    1.0000 </r>
       <r>   -8.0884    1.0000 </r>
       <r>   -8.0578    1.0000 </r>
       <r>   -7.1972    1.0000 </r>
       <r>   -7.1859    1.0000 </r>
       <r>   -6.4148    1.0000 </r>
       <r>   -6.1241    1.0000 </r>
       <r>   -6.1098    1.0000 </r>
       <r>   -6.0973    1.0000 </r>
       <r>   -4.2562    1.0000 </r>
       <r>   -3.9021    1.0000 </r>
       <r>   -1.7066    0.0000 </r>
       <r>   -1.2677    0.0000 </r>
       <r>    0.2613    0.0000 </r>
       <r>    0.2812    0.0000 </r>
       <r>    0.7376    0.0000 </r>
       <r>    1.5328    0.0000 </r>
       <r>    1.8591    0.0000 </r>
       <r>    2.0053    0.0000 </r>
       <r>    2.0226    0.0000 </r>
       <r>    2.7775    0.0000 </r>
      </set>
      <set comment="kpoint 13">
       <r>  -22.0954    1.0000 </r>
       <r>  -20.6177    1.0000 </r>
       <r>  -20.6046    1.0000 </r>
       <r>  -19.5281    1.0000 </r>
       <r>  -19.5103    1.0000 </r>
       <r>  -18.4619    1.0000 </r>
       <r>  -18.4481    1.0000 </r>
       <r>  -16.7782    1.0000 </r>
       <r>  -16.1666    1.0000 </r>
       <r>  -15.2306    1.0000 </r>
       <r>  -14.2630    1.0000 </r>
       <r>  -14.1709    1.0000 </r>
       <r>  -14.1504    1.0000 </r>
       <r>  -12.5991    1.0000 </r>
       <r>  -12.3089    1.0000 </r>
       <r>  -12.2952    1.0000 </r>
       <r>  -12.2744    1.0000 </r>
       <r>  -10.5034    1.0000 </r>
       <r>  -10.4749    1.0000 </r>
       <r>  -10.1683    1.0000 </r>
       <r>   -9.1971    1.0000 </r>
       <r>   -9.1738    1.0000 </r>
       <r>   -9.1280    1.0000 </r>
       <r>   -9.1094    1.0000 </r>
       <r>   -8.4310    1.0000 </r>
       <r>   -8.4206    1.0000 </r>
       <r>   -8.0852    1.0000 </r>
       <r>   -8.0565    1.0000 </r>
       <r>   -7.2008    1.0000 </r>
       <r>   -7.1846    1.0000 </r>
       <r>   -6.4240    1.0000 </r>
       <r>   -6.1148    1.0000 </r>
       <r>   -6.1080    1.0000 </r>
       <r>   -6.0963    1.0000 </r>
       <r>   -4.2532    1.0000 </r>
       <r>   -3.9070    1.0000 </r>
       <r>   -1.7001    0.0000 </r>
       <r>   -1.2722    0.0000 </r>
       <r>    0.2587    0.0000 </r>
       <r>    0.2776    0.0000 </r>
       <r>    0.7376    0.0000 </r>
       <r>    1.5328    0.0000 </r>
       <r>    1.8591    0.0000 </r>
       <r>    2.0067    0.0000 </r>
       <r>    2.0284    0.0000 </r>
       <r>    2.7775    0.0000 </r>
      </set>
      <set comment="kpoint 14">
       <r>  -21.8817    1.0000 </r>
       <r>  -21.1380    1.0000 </r>
       <r>  -20.7688    1.0000 </r>
       <r>  -19.6749    1.0000 </r>
       <r>  -18.9583    1.0000 </r>
       <r>  -17.9170    1.0000 </r>
       <r>  -17.5939    1.0000 </r>
       <r>  -17.5730    1.0000 </r>
       <r>  -16.6675    1.0000 </r>
       <r>  -15.2657    1.0000 </r>
       <r>  -15.2470    1.0000 </r>
       <r>  -14.6289    1.0000 </r>
       <r>  -13.7180    1.0000 </r>
       <r>  -12.8298    1.0000 </r>
       <r>  -11.9094    1.0000 </r>
       <r>  -11.6902    1.0000 </r>
       <r>  -11.3802    1.0000 </r>
       <r>  -10.0300    1.0000 </r>
       <r>   -9.9145    1.0000 </r>
       <r>   -9.9135    1.0000 </r>
       <r>   -9.7183    1.0000 </r>
       <r>   -9.6203    1.0000 </r>
       <r>   -9.2859    1.0000 </r>
       <r>   -9.2627    1.0000 </r>
       <r>   -9.0375    1.0000 </r>
       <r>   -8.6070    1.0000 </r>
       <r>   -8.2636    1.0000 </r>
       <r>   -7.5788    1.0000 </r>
       <r>   -7.3530    1.0000 </r>
       <r>   -7.1276    1.0000 </r>
       <r>   -6.5642    1.0000 </r>
       <r>   -6.5614    1.0000 </r>
       <r>   -5.5871    1.0000 </r>
       <r>   -5.3882    1.0000 </r>
       <r>   -5.0793    1.0000 </r>
       <r>   -4.4228    1.0000 </r>
       <r>   -1.3117    0.0000 </r>
       <r>   -0.6805    0.0000 </r>
       <r>   -0.4155    0.0000 </r>
       <r>   -0.2868    0.0000 </r>
       <r>    1.0282    0.0000 </r>
       <r>    1.2152    0.0000 </r>
       <r>    1.8269    0.0000 </r>
       <r>    2.0447    0.0000 </r>
       <r>    2.1571    0.0000 </r>
       <r>    2.3983    0.0000 </r>
      </set>
      <set comment="kpoint 15">
       <r>  -21.8817    1.0000 </r>
       <r>  -21.1379    1.0000 </r>
       <r>  -20.7690    1.0000 </r>
       <r>  -19.6747    1.0000 </r>
       <r>  -18.9579    1.0000 </r>
       <r>  -17.9165    1.0000 </r>
       <r>  -17.5948    1.0000 </r>
       <r>  -17.5725    1.0000 </r>
       <r>  -16.6721    1.0000 </r>
       <r>  -15.2489    1.0000 </r>
       <r>  -15.2456    1.0000 </r>
       <r>  -14.6422    1.0000 </r>
       <r>  -13.7330    1.0000 </r>
       <r>  -12.8163    1.0000 </r>
       <r>  -11.8931    1.0000 </r>
       <r>  -11.6854    1.0000 </r>
       <r>  -11.3914    1.0000 </r>
       <r>  -10.0474    1.0000 </r>
       <r>   -9.9286    1.0000 </r>
       <r>   -9.9143    1.0000 </r>
       <r>   -9.7016    1.0000 </r>
       <r>   -9.6270    1.0000 </r>
       <r>   -9.2910    1.0000 </r>
       <r>   -9.2506    1.0000 </r>
       <r>   -9.0384    1.0000 </r>
       <r>   -8.6057    1.0000 </r>
       <r>   -8.2442    1.0000 </r>
       <r>   -7.5921    1.0000 </r>
       <r>   -7.3534    1.0000 </r>
       <r>   -7.1390    1.0000 </r>
       <r>   -6.5699    1.0000 </r>
       <r>   -6.5493    1.0000 </r>
       <r>   -5.5752    1.0000 </r>
       <r>   -5.3915    1.0000 </r>
       <r>   -5.0715    1.0000 </r>
       <r>   -4.4365    1.0000 </r>
       <r>   -1.2907    0.0000 </r>
       <r>   -0.6748    0.0000 </r>
       <r>   -0.4304    0.0000 </r>
       <r>   -0.3097    0.0000 </r>
       <r>    1.0283    0.0000 </r>
       <r>    1.2309    0.0000 </r>
       <r>    1.8269    0.0000 </r>
       <r>    2.0446    0.0000 </r>
       <r>    2.1571    0.0000 </r>
       <r>    2.3996    0.0000 </r>
      </set>
      <set comment="kpoint 16">
       <r>  -21.8818    1.0000 </r>
       <r>  -21.1382    1.0000 </r>
       <r>  -20.7685    1.0000 </r>
       <r>  -19.6741    1.0000 </r>
       <r>  -18.9582    1.0000 </r>
       <r>  -17.9172    1.0000 </r>
       <r>  -17.5957    1.0000 </r>
       <r>  -17.5695    1.0000 </r>
       <r>  -16.6737    1.0000 </r>
       <r>  -15.2639    1.0000 </r>
       <r>  -15.2409    1.0000 </r>
       <r>  -14.6332    1.0000 </r>
       <r>  -13.7310    1.0000 </r>
       <r>  -12.8173    1.0000 </r>
       <r>  -11.8951    1.0000 </r>
       <r>  -11.6721    1.0000 </r>
       <r>  -11.3945    1.0000 </r>
       <r>  -10.0453    1.0000 </r>
       <r>   -9.9141    1.0000 </r>
       <r>   -9.9082    1.0000 </r>
       <r>   -9.7139    1.0000 </r>
       <r>   -9.6408    1.0000 </r>
       <r>   -9.2779    1.0000 </r>
       <r>   -9.2697    1.0000 </r>
       <r>   -9.0369    1.0000 </r>
       <r>   -8.6076    1.0000 </r>
       <r>   -8.2686    1.0000 </r>
       <r>   -7.5653    1.0000 </r>
       <r>   -7.3565    1.0000 </r>
       <r>   -7.1603    1.0000 </r>
       <r>   -6.5686    1.0000 </r>
       <r>   -6.5269    1.0000 </r>
       <r>   -5.5826    1.0000 </r>
       <r>   -5.3771    1.0000 </r>
       <r>   -5.0712    1.0000 </r>
       <r>   -4.4389    1.0000 </r>
       <r>   -1.2873    0.0000 </r>
       <r>   -0.7010    0.0000 </r>
       <r>   -0.4296    0.0000 </r>
       <r>   -0.2961    0.0000 </r>
       <r>    1.0283    0.0000 </r>
       <r>    1.2269    0.0000 </r>
       <r>    1.8269    0.0000 </r>
       <r>    2.0447    0.0000 </r>
       <r>    2.1571    0.0000 </r>
       <r>    2.4111    0.0000 </r>
      </set>
      <set comment="kpoint 17">
       <r>  -21.8818    1.0000 </r>
       <r>  -21.1383    1.0000 </r>
       <r>  -20.7684    1.0000 </r>
       <r>  -19.6742    1.0000 </r>
       <r>  -18.9584    1.0000 </r>
       <r>  -17.9173    1.0000 </r>
       <r>  -17.5940    1.0000 </r>
       <r>  -17.5714    1.0000 </r>
       <r>  -16.6718    1.0000 </r>
       <r>  -15.2641    1.0000 </r>
       <r>  -15.2457    1.0000 </r>
       <r>  -14.6297    1.0000 </r>
       <r>  -13.7264    1.0000 </r>
       <r>  -12.8217    1.0000 </r>
       <r>  -11.8998    1.0000 </r>
       <r>  -11.6755    1.0000 </r>
       <r>  -11.3902    1.0000 </r>
       <r>  -10.0403    1.0000 </r>
       <r>   -9.9141    1.0000 </r>
       <r>   -9.9046    1.0000 </r>
       <r>   -9.7178    1.0000 </r>
       <r>   -9.6379    1.0000 </r>
       <r>   -9.2778    1.0000 </r>
       <r>   -9.2713    1.0000 </r>
       <r>   -9.0368    1.0000 </r>
       <r>   -8.6078    1.0000 </r>
       <r>   -8.2730    1.0000 </r>
       <r>   -7.5635    1.0000 </r>
       <r>   -7.3560    1.0000 </r>
       <r>   -7.1546    1.0000 </r>
       <r>   -6.5669    1.0000 </r>
       <r>   -6.5328    1.0000 </r>
       <r>   -5.5858    1.0000 </r>
       <r>   -5.3772    1.0000 </r>
       <r>   -5.0741    1.0000 </r>
       <r>   -4.4341    1.0000 </r>
       <r>   -1.2947    0.0000 </r>
       <r>   -0.7002    0.0000 </r>
       <r>   -0.4251    0.0000 </r>
       <r>   -0.2897    0.0000 </r>
       <r>    1.0283    0.0000 </r>
       <r>    1.2221    0.0000 </r>
       <r>    1.8269    0.0000 </r>
       <r>    2.0447    0.0000 </r>
       <r>    2.1571    0.0000 </r>
       <r>    2.4096    0.0000 </r>
      </set>
      <set comment="kpoint 18">
       <r>  -21.8817    1.0000 </r>
       <r>  -21.1379    1.0000 </r>
       <r>  -20.7689    1.0000 </r>
       <r>  -19.6749    1.0000 </r>
       <r>  -18.9583    1.0000 </r>
       <r>  -17.9167    1.0000 </r>
       <r>  -17.5954    1.0000 </r>
       <r>  -17.5720    1.0000 </r>
       <r>  -16.6675    1.0000 </r>
       <r>  -15.2618    1.0000 </r>
       <r>  -15.2468    1.0000 </r>
       <r>  -14.6322    1.0000 </r>
       <r>  -13.7198    1.0000 </r>
       <r>  -12.8286    1.0000 </r>
       <r>  -11.9074    1.0000 </r>
       <r>  -11.6927    1.0000 </r>
       <r>  -11.3806    1.0000 </r>
       <r>  -10.0313    1.0000 </r>
       <r>   -9.9199    1.0000 </r>
       <r>   -9.9145    1.0000 </r>
       <r>   -9.7150    1.0000 </r>
       <r>   -9.6170    1.0000 </r>
       <r>   -9.2919    1.0000 </r>
       <r>   -9.2546    1.0000 </r>
       <r>   -9.0379    1.0000 </r>
       <r>   -8.6065    1.0000 </r>
       <r>   -8.2556    1.0000 </r>
       <r>   -7.5865    1.0000 </r>
       <r>   -7.3522    1.0000 </r>
       <r>   -7.1231    1.0000 </r>
       <r>   -6.5662    1.0000 </r>
       <r>   -6.5650    1.0000 </r>
       <r>   -5.5842    1.0000 </r>
       <r>   -5.3920    1.0000 </r>
       <r>   -5.0786    1.0000 </r>
       <r>   -4.4235    1.0000 </r>
       <r>   -1.3107    0.0000 </r>
       <r>   -0.6740    0.0000 </r>
       <r>   -0.4161    0.0000 </r>
       <r>   -0.2927    0.0000 </r>
       <r>    1.0282    0.0000 </r>
       <r>    1.2175    0.0000 </r>
       <r>    1.8269    0.0000 </r>
       <r>    2.0448    0.0000 </r>
       <r>    2.1571    0.0000 </r>
       <r>    2.5528    0.0000 </r>
      </set>
      <set comment="kpoint 19">
       <r>  -21.8818    1.0000 </r>
       <r>  -21.1379    1.0000 </r>
       <r>  -20.7689    1.0000 </r>
       <r>  -19.6746    1.0000 </r>
       <r>  -18.9576    1.0000 </r>
       <r>  -17.9166    1.0000 </r>
       <r>  -17.5955    1.0000 </r>
       <r>  -17.5710    1.0000 </r>
       <r>  -16.6739    1.0000 </r>
       <r>  -15.2533    1.0000 </r>
       <r>  -15.2405    1.0000 </r>
       <r>  -14.6424    1.0000 </r>
       <r>  -13.7358    1.0000 </r>
       <r>  -12.8134    1.0000 </r>
       <r>  -11.8899    1.0000 </r>
       <r>  -11.6796    1.0000 </r>
       <r>  -11.3954    1.0000 </r>
       <r>  -10.0504    1.0000 </r>
       <r>   -9.9262    1.0000 </r>
       <r>   -9.9142    1.0000 </r>
       <r>   -9.7016    1.0000 </r>
       <r>   -9.6329    1.0000 </r>
       <r>   -9.2862    1.0000 </r>
       <r>   -9.2559    1.0000 </r>
       <r>   -9.0381    1.0000 </r>
       <r>   -8.6061    1.0000 </r>
       <r>   -8.2478    1.0000 </r>
       <r>   -7.5861    1.0000 </r>
       <r>   -7.3547    1.0000 </r>
       <r>   -7.1492    1.0000 </r>
       <r>   -6.5707    1.0000 </r>
       <r>   -6.5387    1.0000 </r>
       <r>   -5.5749    1.0000 </r>
       <r>   -5.3875    1.0000 </r>
       <r>   -5.0694    1.0000 </r>
       <r>   -4.4407    1.0000 </r>
       <r>   -1.2845    0.0000 </r>
       <r>   -0.6821    0.0000 </r>
       <r>   -0.4348    0.0000 </r>
       <r>   -0.3099    0.0000 </r>
       <r>    1.0283    0.0000 </r>
       <r>    1.2334    0.0000 </r>
       <r>    1.8269    0.0000 </r>
       <r>    2.0446    0.0000 </r>
       <r>    2.1571    0.0000 </r>
       <r>    2.4038    0.0000 </r>
      </set>
      <set comment="kpoint 20">
       <r>  -21.5695    1.0000 </r>
       <r>  -21.5547    1.0000 </r>
       <r>  -20.8216    1.0000 </r>
       <r>  -19.7265    1.0000 </r>
       <r>  -18.3117    1.0000 </r>
       <r>  -18.3004    1.0000 </r>
       <r>  -17.3134    1.0000 </r>
       <r>  -17.3014    1.0000 </r>
       <r>  -16.9885    1.0000 </r>
       <r>  -15.9358    1.0000 </r>
       <r>  -15.0222    1.0000 </r>
       <r>  -14.9990    1.0000 </r>
       <r>  -13.2944    1.0000 </r>
       <r>  -13.2699    1.0000 </r>
       <r>  -11.3621    1.0000 </r>
       <r>  -10.9998    1.0000 </r>
       <r>  -10.9757    1.0000 </r>
       <r>  -10.5080    1.0000 </r>
       <r>  -10.4900    1.0000 </r>
       <r>   -9.9020    1.0000 </r>
       <r>   -9.6390    1.0000 </r>
       <r>   -9.5424    1.0000 </r>
       <r>   -9.5297    1.0000 </r>
       <r>   -9.3380    1.0000 </r>
       <r>   -8.6670    1.0000 </r>
       <r>   -8.4144    1.0000 </r>
       <r>   -8.1326    1.0000 </r>
       <r>   -8.1090    1.0000 </r>
       <r>   -7.4087    1.0000 </r>
       <r>   -7.0738    1.0000 </r>
       <r>   -7.0397    1.0000 </r>
       <r>   -5.8622    1.0000 </r>
       <r>   -5.8495    1.0000 </r>
       <r>   -5.0662    1.0000 </r>
       <r>   -5.0200    1.0000 </r>
       <r>   -5.0026    1.0000 </r>
       <r>   -1.0847    0.0000 </r>
       <r>   -0.8379    0.0000 </r>
       <r>   -0.8111    0.0000 </r>
       <r>    0.4013    0.0000 </r>
       <r>    0.4208    0.0000 </r>
       <r>    1.4633    0.0000 </r>
       <r>    1.4650    0.0000 </r>
       <r>    2.2669    0.0000 </r>
       <r>    2.2676    0.0000 </r>
       <r>    2.6038    0.0000 </r>
      </set>
      <set comment="kpoint 21">
       <r>  -21.5685    1.0000 </r>
       <r>  -21.5557    1.0000 </r>
       <r>  -20.8217    1.0000 </r>
       <r>  -19.7265    1.0000 </r>
       <r>  -18.3154    1.0000 </r>
       <r>  -18.2967    1.0000 </r>
       <r>  -17.3168    1.0000 </r>
       <r>  -17.2972    1.0000 </r>
       <r>  -16.9912    1.0000 </r>
       <r>  -15.9300    1.0000 </r>
       <r>  -15.0211    1.0000 </r>
       <r>  -15.0036    1.0000 </r>
       <r>  -13.2920    1.0000 </r>
       <r>  -13.2729    1.0000 </r>
       <r>  -11.3675    1.0000 </r>
       <r>  -10.9968    1.0000 </r>
       <r>  -10.9787    1.0000 </r>
       <r>  -10.5051    1.0000 </r>
       <r>  -10.4890    1.0000 </r>
       <r>   -9.8953    1.0000 </r>
       <r>   -9.6459    1.0000 </r>
       <r>   -9.5415    1.0000 </r>
       <r>   -9.5310    1.0000 </r>
       <r>   -9.3430    1.0000 </r>
       <r>   -8.6666    1.0000 </r>
       <r>   -8.4073    1.0000 </r>
       <r>   -8.1276    1.0000 </r>
       <r>   -8.0997    1.0000 </r>
       <r>   -7.4077    1.0000 </r>
       <r>   -7.0804    1.0000 </r>
       <r>   -7.0483    1.0000 </r>
       <r>   -5.8644    1.0000 </r>
       <r>   -5.8477    1.0000 </r>
       <r>   -5.0709    1.0000 </r>
       <r>   -5.0191    1.0000 </r>
       <r>   -5.0011    1.0000 </r>
       <r>   -1.0767    0.0000 </r>
       <r>   -0.8381    0.0000 </r>
       <r>   -0.8154    0.0000 </r>
       <r>    0.4016    0.0000 </r>
       <r>    0.4213    0.0000 </r>
       <r>    1.4634    0.0000 </r>
       <r>    1.4648    0.0000 </r>
       <r>    2.2669    0.0000 </r>
       <r>    2.2675    0.0000 </r>
       <r>    2.4895    0.0000 </r>
      </set>
      <set comment="kpoint 22">
       <r>  -21.5667    1.0000 </r>
       <r>  -21.5579    1.0000 </r>
       <r>  -20.8212    1.0000 </r>
       <r>  -19.7259    1.0000 </r>
       <r>  -18.3167    1.0000 </r>
       <r>  -18.2960    1.0000 </r>
       <r>  -17.3191    1.0000 </r>
       <r>  -17.2979    1.0000 </r>
       <r>  -16.9810    1.0000 </r>
       <r>  -15.9515    1.0000 </r>
       <r>  -15.0125    1.0000 </r>
       <r>  -14.9994    1.0000 </r>
       <r>  -13.2874    1.0000 </r>
       <r>  -13.2756    1.0000 </r>
       <r>  -11.3459    1.0000 </r>
       <r>  -10.9937    1.0000 </r>
       <r>  -10.9837    1.0000 </r>
       <r>  -10.5070    1.0000 </r>
       <r>  -10.5008    1.0000 </r>
       <r>   -9.9196    1.0000 </r>
       <r>   -9.6198    1.0000 </r>
       <r>   -9.5396    1.0000 </r>
       <r>   -9.5316    1.0000 </r>
       <r>   -9.3258    1.0000 </r>
       <r>   -8.6682    1.0000 </r>
       <r>   -8.4360    1.0000 </r>
       <r>   -8.1529    1.0000 </r>
       <r>   -8.1239    1.0000 </r>
       <r>   -7.4111    1.0000 </r>
       <r>   -7.0586    1.0000 </r>
       <r>   -7.0155    1.0000 </r>
       <r>   -5.8643    1.0000 </r>
       <r>   -5.8466    1.0000 </r>
       <r>   -5.0535    1.0000 </r>
       <r>   -5.0230    1.0000 </r>
       <r>   -5.0063    1.0000 </r>
       <r>   -1.1068    0.0000 </r>
       <r>   -0.8229    0.0000 </r>
       <r>   -0.8132    0.0000 </r>
       <r>    0.4032    0.0000 </r>
       <r>    0.4162    0.0000 </r>
       <r>    1.4636    0.0000 </r>
       <r>    1.4647    0.0000 </r>
       <r>    2.2671    0.0000 </r>
       <r>    2.2676    0.0000 </r>
       <r>    2.4814    0.0000 </r>
      </set>
      <set comment="kpoint 23">
       <r>  -21.6154    1.0000 </r>
       <r>  -21.2483    1.0000 </r>
       <r>  -21.2392    1.0000 </r>
       <r>  -19.0704    1.0000 </r>
       <r>  -19.0505    1.0000 </r>
       <r>  -18.3553    1.0000 </r>
       <r>  -17.0937    1.0000 </r>
       <r>  -17.0876    1.0000 </r>
       <r>  -16.7055    1.0000 </r>
       <r>  -15.6901    1.0000 </r>
       <r>  -15.6164    1.0000 </r>
       <r>  -15.6010    1.0000 </r>
       <r>  -12.9077    1.0000 </r>
       <r>  -12.2746    1.0000 </r>
       <r>  -12.2681    1.0000 </r>
       <r>  -11.3659    1.0000 </r>
       <r>  -10.5543    1.0000 </r>
       <r>  -10.5483    1.0000 </r>
       <r>  -10.5269    1.0000 </r>
       <r>   -9.8293    1.0000 </r>
       <r>   -9.8197    1.0000 </r>
       <r>   -9.5992    1.0000 </r>
       <r>   -9.1648    1.0000 </r>
       <r>   -9.1569    1.0000 </r>
       <r>   -8.8412    1.0000 </r>
       <r>   -8.8088    1.0000 </r>
       <r>   -7.8653    1.0000 </r>
       <r>   -7.7006    1.0000 </r>
       <r>   -7.6639    1.0000 </r>
       <r>   -7.1003    1.0000 </r>
       <r>   -6.6723    1.0000 </r>
       <r>   -6.6537    1.0000 </r>
       <r>   -5.8970    1.0000 </r>
       <r>   -5.0143    1.0000 </r>
       <r>   -5.0067    1.0000 </r>
       <r>   -4.6623    1.0000 </r>
       <r>   -1.2443    0.0000 </r>
       <r>   -1.0218    0.0000 </r>
       <r>   -1.0096    0.0000 </r>
       <r>    0.5371    0.0000 </r>
       <r>    1.3916    0.0000 </r>
       <r>    1.4667    0.0000 </r>
       <r>    1.4873    0.0000 </r>
       <r>    1.8996    0.0000 </r>
       <r>    1.9007    0.0000 </r>
       <r>    2.1940    0.0000 </r>
      </set>
      <set comment="kpoint 24">
       <r>  -21.6155    1.0000 </r>
       <r>  -21.2513    1.0000 </r>
       <r>  -21.2362    1.0000 </r>
       <r>  -19.0656    1.0000 </r>
       <r>  -19.0548    1.0000 </r>
       <r>  -18.3557    1.0000 </r>
       <r>  -17.0957    1.0000 </r>
       <r>  -17.0817    1.0000 </r>
       <r>  -16.7128    1.0000 </r>
       <r>  -15.6736    1.0000 </r>
       <r>  -15.6248    1.0000 </r>
       <r>  -15.6059    1.0000 </r>
       <r>  -12.9211    1.0000 </r>
       <r>  -12.2699    1.0000 </r>
       <r>  -12.2527    1.0000 </r>
       <r>  -11.3511    1.0000 </r>
       <r>  -10.5715    1.0000 </r>
       <r>  -10.5572    1.0000 </r>
       <r>  -10.5348    1.0000 </r>
       <r>   -9.8268    1.0000 </r>
       <r>   -9.8099    1.0000 </r>
       <r>   -9.5987    1.0000 </r>
       <r>   -9.1674    1.0000 </r>
       <r>   -9.1548    1.0000 </r>
       <r>   -8.8396    1.0000 </r>
       <r>   -8.8025    1.0000 </r>
       <r>   -7.8887    1.0000 </r>
       <r>   -7.7068    1.0000 </r>
       <r>   -7.6656    1.0000 </r>
       <r>   -7.0758    1.0000 </r>
       <r>   -6.6711    1.0000 </r>
       <r>   -6.6596    1.0000 </r>
       <r>   -5.8924    1.0000 </r>
       <r>   -5.0124    1.0000 </r>
       <r>   -4.9951    1.0000 </r>
       <r>   -4.6756    1.0000 </r>
       <r>   -1.2235    0.0000 </r>
       <r>   -1.0406    0.0000 </r>
       <r>   -1.0130    0.0000 </r>
       <r>    0.5259    0.0000 </r>
       <r>    1.3917    0.0000 </r>
       <r>    1.4755    0.0000 </r>
       <r>    1.4925    0.0000 </r>
       <r>    1.8992    0.0000 </r>
       <r>    1.9010    0.0000 </r>
       <r>    2.1940    0.0000 </r>
      </set>
      <set comment="kpoint 25">
       <r>  -21.6156    1.0000 </r>
       <r>  -21.2502    1.0000 </r>
       <r>  -21.2372    1.0000 </r>
       <r>  -19.0691    1.0000 </r>
       <r>  -19.0510    1.0000 </r>
       <r>  -18.3558    1.0000 </r>
       <r>  -17.0949    1.0000 </r>
       <r>  -17.0807    1.0000 </r>
       <r>  -16.7158    1.0000 </r>
       <r>  -15.6683    1.0000 </r>
       <r>  -15.6270    1.0000 </r>
       <r>  -15.6079    1.0000 </r>
       <r>  -12.9257    1.0000 </r>
       <r>  -12.2664    1.0000 </r>
       <r>  -12.2491    1.0000 </r>
       <r>  -11.3457    1.0000 </r>
       <r>  -10.5715    1.0000 </r>
       <r>  -10.5599    1.0000 </r>
       <r>  -10.5445    1.0000 </r>
       <r>   -9.8245    1.0000 </r>
       <r>   -9.8076    1.0000 </r>
       <r>   -9.5985    1.0000 </r>
       <r>   -9.1664    1.0000 </r>
       <r>   -9.1559    1.0000 </r>
       <r>   -8.8369    1.0000 </r>
       <r>   -8.8025    1.0000 </r>
       <r>   -7.8962    1.0000 </r>
       <r>   -7.7059    1.0000 </r>
       <r>   -7.6702    1.0000 </r>
       <r>   -7.0669    1.0000 </r>
       <r>   -6.6744    1.0000 </r>
       <r>   -6.6581    1.0000 </r>
       <r>   -5.8909    1.0000 </r>
       <r>   -5.0094    1.0000 </r>
       <r>   -4.9930    1.0000 </r>
       <r>   -4.6807    1.0000 </r>
       <r>   -1.2158    0.0000 </r>
       <r>   -1.0427    0.0000 </r>
       <r>   -1.0193    0.0000 </r>
       <r>    0.5219    0.0000 </r>
       <r>    1.3917    0.0000 </r>
       <r>    1.4763    0.0000 </r>
       <r>    1.4969    0.0000 </r>
       <r>    1.8993    0.0000 </r>
       <r>    1.9009    0.0000 </r>
       <r>    2.1941    0.0000 </r>
      </set>
     </set>
    </set>
   </array>
  </eigenvalues>
  <separator name="orbital magnetization" >
   <v name="MAGDIPOLOUT">      0.00000000      0.00000000      0.00000000</v>
  </separator>
  <dos>
   <i name="efermi">     -2.75525218 </i>
   <total>
    <array>
     <dimension dim="1">gridpoints</dimension>
     <dimension dim="2">spin</dimension>
     <field>energy</field>
     <field>total</field>
     <field>integrated</field>
     <set>
      <set comment="spin 1">
       <r>   -23.5114     0.0000     0.0000 </r>
       <r>   -23.4193     0.0000     0.0000 </r>
       <r>   -23.3273     0.0000     0.0000 </r>
       <r>   -23.2352     0.0000     0.0000 </r>
       <r>   -23.1431     0.0000     0.0000 </r>
       <r>   -23.0511     0.0000     0.0000 </r>
       <r>   -22.9590     0.0000     0.0000 </r>
       <r>   -22.8670     0.0000     0.0000 </r>
       <r>   -22.7749     0.0000     0.0000 </r>
       <r>   -22.6828     0.0000     0.0000 </r>
       <r>   -22.5908     0.0000     0.0000 </r>
       <r>   -22.4987     0.0000     0.0000 </r>
       <r>   -22.4067     0.0000     0.0000 </r>
       <r>   -22.3146     0.0236     0.0022 </r>
       <r>   -22.2225     1.1018     0.1036 </r>
       <r>   -22.1305     2.3659     0.3214 </r>
       <r>   -22.0384     3.5656     0.6497 </r>
       <r>   -21.9464     1.5378     0.7912 </r>
       <r>   -21.8543     4.0194     1.1613 </r>
       <r>   -21.7622     2.8376     1.4225 </r>
       <r>   -21.6702     1.1180     1.5254 </r>
       <r>   -21.5781     3.8561     1.8804 </r>
       <r>   -21.4861     3.8930     2.2388 </r>
       <r>   -21.3940     1.6562     2.3913 </r>
       <r>   -21.3019     1.3439     2.5150 </r>
       <r>   -21.2099     4.2382     2.9052 </r>
       <r>   -21.1178     4.6177     3.3303 </r>
       <r>   -21.0258     1.5139     3.4696 </r>
       <r>   -20.9337     1.1224     3.5730 </r>
       <r>   -20.8416     2.3744     3.7916 </r>
       <r>   -20.7496     5.5234     4.3000 </r>
       <r>   -20.6575     2.1362     4.4967 </r>
       <r>   -20.5655     4.2594     4.8888 </r>
       <r>   -20.4734     0.5429     4.9388 </r>
       <r>   -20.3813     0.5369     4.9882 </r>
       <r>   -20.2893     5.1557     5.4629 </r>
       <r>   -20.1972     4.6720     5.8930 </r>
       <r>   -20.1052     2.8988     6.1598 </r>
       <r>   -20.0131     1.1650     6.2671 </r>
       <r>   -19.9210     3.9842     6.6339 </r>
       <r>   -19.8290     0.2134     6.6535 </r>
       <r>   -19.7369     1.3494     6.7777 </r>
       <r>   -19.6449     7.5836     7.4759 </r>
       <r>   -19.5528     2.6517     7.7200 </r>
       <r>   -19.4607     4.0906     8.0966 </r>
       <r>   -19.3687     0.2893     8.1232 </r>
       <r>   -19.2766     1.8399     8.2926 </r>
       <r>   -19.1846     3.3927     8.6049 </r>
       <r>   -19.0925     1.0765     8.7040 </r>
       <r>   -19.0004     4.6831     9.1352 </r>
       <r>   -18.9084     5.7919     9.6684 </r>
       <r>   -18.8163     2.0559     9.8576 </r>
       <r>   -18.7243     4.0621    10.2316 </r>
       <r>   -18.6322     1.0296    10.3264 </r>
       <r>   -18.5401     0.0493    10.3309 </r>
       <r>   -18.4481     3.0251    10.6094 </r>
       <r>   -18.3560     4.0042    10.9780 </r>
       <r>   -18.2640     5.5643    11.4903 </r>
       <r>   -18.1719     2.5455    11.7246 </r>
       <r>   -18.0798     4.1970    12.1110 </r>
       <r>   -17.9878     1.9729    12.2926 </r>
       <r>   -17.8957     3.7840    12.6410 </r>
       <r>   -17.8037     1.4578    12.7752 </r>
       <r>   -17.7116     0.0064    12.7758 </r>
       <r>   -17.6195     1.7550    12.9373 </r>
       <r>   -17.5275     8.7048    13.7387 </r>
       <r>   -17.4354     4.9583    14.1952 </r>
       <r>   -17.3434     1.4138    14.3253 </r>
       <r>   -17.2513     4.8162    14.7687 </r>
       <r>   -17.1592     2.3580    14.9858 </r>
       <r>   -17.0672     3.8433    15.3396 </r>
       <r>   -16.9751     3.0811    15.6232 </r>
       <r>   -16.8830     0.9889    15.7143 </r>
       <r>   -16.7910     1.5563    15.8576 </r>
       <r>   -16.6989     8.6992    16.6584 </r>
       <r>   -16.6069     5.5145    17.1661 </r>
       <r>   -16.5148     0.1913    17.1837 </r>
       <r>   -16.4227     0.0000    17.1837 </r>
       <r>   -16.3307     0.0000    17.1837 </r>
       <r>   -16.2386     0.0412    17.1875 </r>
       <r>   -16.1466     1.7255    17.3463 </r>
       <r>   -16.0545     1.1673    17.4538 </r>
       <r>   -15.9624     4.7715    17.8930 </r>
       <r>   -15.8704     2.8558    18.1559 </r>
       <r>   -15.7783     0.5749    18.2089 </r>
       <r>   -15.6863     3.2327    18.5065 </r>
       <r>   -15.5942     5.3062    18.9950 </r>
       <r>   -15.5021     1.6005    19.1423 </r>
       <r>   -15.4101     0.0634    19.1481 </r>
       <r>   -15.3180     1.6561    19.3006 </r>
       <r>   -15.2260     9.9054    20.2125 </r>
       <r>   -15.1339     3.4465    20.5298 </r>
       <r>   -15.0418     1.0206    20.6237 </r>
       <r>   -14.9498     4.8725    21.0723 </r>
       <r>   -14.8577     4.4278    21.4799 </r>
       <r>   -14.7657     1.3132    21.6008 </r>
       <r>   -14.6736     2.8348    21.8618 </r>
       <r>   -14.5815     8.4918    22.6435 </r>
       <r>   -14.4895     0.9895    22.7346 </r>
       <r>   -14.3974     0.0982    22.7437 </r>
       <r>   -14.3054     3.7587    23.0897 </r>
       <r>   -14.2133     4.1664    23.4733 </r>
       <r>   -14.1212     4.4311    23.8812 </r>
       <r>   -14.0292     0.9227    23.9661 </r>
       <r>   -13.9371     3.3762    24.2769 </r>
       <r>   -13.8451     1.8632    24.4485 </r>
       <r>   -13.7530     1.2711    24.5655 </r>
       <r>   -13.6609     3.9861    24.9324 </r>
       <r>   -13.5689     2.3157    25.1456 </r>
       <r>   -13.4768     4.3256    25.5438 </r>
       <r>   -13.3848     1.4210    25.6747 </r>
       <r>   -13.2927     2.4538    25.9006 </r>
       <r>   -13.2006     3.6657    26.2380 </r>
       <r>   -13.1086     0.0753    26.2449 </r>
       <r>   -13.0165     0.8528    26.3235 </r>
       <r>   -12.9245     9.3239    27.1818 </r>
       <r>   -12.8324     5.1054    27.6518 </r>
       <r>   -12.7403     3.2745    27.9533 </r>
       <r>   -12.6483     0.3709    27.9874 </r>
       <r>   -12.5562     2.1242    28.1830 </r>
       <r>   -12.4642     0.2588    28.2068 </r>
       <r>   -12.3721     1.5905    28.3532 </r>
       <r>   -12.2800     7.9251    29.0828 </r>
       <r>   -12.1880     8.7011    29.8838 </r>
       <r>   -12.0959     2.9957    30.1596 </r>
       <r>   -12.0039     0.0496    30.1642 </r>
       <r>   -11.9118     1.9204    30.3410 </r>
       <r>   -11.8197     3.3675    30.6510 </r>
       <r>   -11.7277     3.6867    30.9904 </r>
       <r>   -11.6356     6.4458    31.5838 </r>
       <r>   -11.5436     0.5305    31.6326 </r>
       <r>   -11.4515     0.2375    31.6545 </r>
       <r>   -11.3594     6.4779    32.2508 </r>
       <r>   -11.2674     6.0584    32.8086 </r>
       <r>   -11.1753     3.3612    33.1180 </r>
       <r>   -11.0833     5.5560    33.6295 </r>
       <r>   -10.9912     4.7204    34.0641 </r>
       <r>   -10.8991     2.8115    34.3229 </r>
       <r>   -10.8071     0.0396    34.3265 </r>
       <r>   -10.7150     0.0036    34.3269 </r>
       <r>   -10.6230     1.5519    34.4697 </r>
       <r>   -10.5309    10.9588    35.4786 </r>
       <r>   -10.4388    10.6124    36.4556 </r>
       <r>   -10.3468     2.9014    36.7227 </r>
       <r>   -10.2547     5.9099    37.2667 </r>
       <r>   -10.1627     2.0662    37.4570 </r>
       <r>   -10.0706     4.3216    37.8548 </r>
       <r>    -9.9785     4.9429    38.3098 </r>
       <r>    -9.8865    10.8244    39.3063 </r>
       <r>    -9.7944     9.9908    40.2261 </r>
       <r>    -9.7024     6.2394    40.8005 </r>
       <r>    -9.6103     8.7339    41.6045 </r>
       <r>    -9.5182     8.8990    42.4238 </r>
       <r>    -9.4262     5.4795    42.9282 </r>
       <r>    -9.3341     3.8036    43.2784 </r>
       <r>    -9.2421    10.3723    44.2333 </r>
       <r>    -9.1500    11.9600    45.3343 </r>
       <r>    -9.0579    14.8598    46.7023 </r>
       <r>    -8.9659     6.8442    47.3324 </r>
       <r>    -8.8738     3.1475    47.6221 </r>
       <r>    -8.7818    12.2753    48.7522 </r>
       <r>    -8.6897     6.9211    49.3894 </r>
       <r>    -8.5976     7.4394    50.0742 </r>
       <r>    -8.5056     7.0118    50.7197 </r>
       <r>    -8.4135     8.1087    51.4662 </r>
       <r>    -8.3215     3.3556    51.7751 </r>
       <r>    -8.2294     4.0040    52.1437 </r>
       <r>    -8.1373     5.5954    52.6589 </r>
       <r>    -8.0453    13.6821    53.9184 </r>
       <r>    -7.9532     5.3405    54.4101 </r>
       <r>    -7.8612     4.9522    54.8660 </r>
       <r>    -7.7691     1.2170    54.9780 </r>
       <r>    -7.6770     8.3486    55.7466 </r>
       <r>    -7.5850     7.0574    56.3963 </r>
       <r>    -7.4929     5.1234    56.8680 </r>
       <r>    -7.4009     2.9737    57.1417 </r>
       <r>    -7.3088     7.3260    57.8162 </r>
       <r>    -7.2167     2.3210    58.0298 </r>
       <r>    -7.1247     9.9879    58.9493 </r>
       <r>    -7.0326     7.7011    59.6583 </r>
       <r>    -6.9406     3.5693    59.9869 </r>
       <r>    -6.8485     3.5866    60.3171 </r>
       <r>    -6.7564     0.1505    60.3309 </r>
       <r>    -6.6644     4.3278    60.7293 </r>
       <r>    -6.5723    10.5296    61.6987 </r>
       <r>    -6.4802     8.8257    62.5112 </r>
       <r>    -6.3882     4.1197    62.8904 </r>
       <r>    -6.2961     4.0493    63.2632 </r>
       <r>    -6.2041     1.7698    63.4261 </r>
       <r>    -6.1120     4.9337    63.8803 </r>
       <r>    -6.0199     4.8857    64.3301 </r>
       <r>    -5.9279     2.8076    64.5886 </r>
       <r>    -5.8358     7.9334    65.3189 </r>
       <r>    -5.7438     7.1429    65.9765 </r>
       <r>    -5.6517     3.4671    66.2957 </r>
       <r>    -5.5596     3.7816    66.6438 </r>
       <r>    -5.4676     1.4857    66.7806 </r>
       <r>    -5.3755     3.1912    67.0744 </r>
       <r>    -5.2835     2.0861    67.2664 </r>
       <r>    -5.1914     1.5243    67.4067 </r>
       <r>    -5.0993     3.2646    67.7073 </r>
       <r>    -5.0073    15.5931    69.1428 </r>
       <r>    -4.9152     6.1506    69.7090 </r>
       <r>    -4.8232     0.0573    69.7143 </r>
       <r>    -4.7311     0.1426    69.7274 </r>
       <r>    -4.6390     2.0516    69.9163 </r>
       <r>    -4.5470     0.4693    69.9595 </r>
       <r>    -4.4549     1.4308    70.0912 </r>
       <r>    -4.3629     3.9517    70.4550 </r>
       <r>    -4.2708     5.0505    70.9200 </r>
       <r>    -4.1787     2.8273    71.1802 </r>
       <r>    -4.0867     0.0374    71.1837 </r>
       <r>    -3.9946     0.0110    71.1847 </r>
       <r>    -3.9026     1.2249    71.2975 </r>
       <r>    -3.8105     1.4054    71.4268 </r>
       <r>    -3.7184     0.0189    71.4286 </r>
       <r>    -3.6264     0.0151    71.4300 </r>
       <r>    -3.5343     2.1973    71.6322 </r>
       <r>    -3.4423     3.0567    71.9136 </r>
       <r>    -3.3502     0.0513    71.9184 </r>
       <r>    -3.2581     0.0000    71.9184 </r>
       <r>    -3.1661     0.0000    71.9184 </r>
       <r>    -3.0740     0.0000    71.9184 </r>
       <r>    -2.9820     0.0000    71.9184 </r>
       <r>    -2.8899     0.0002    71.9184 </r>
       <r>    -2.7978     0.2233    71.9390 </r>
       <r>    -2.7058     1.3873    72.0667 </r>
       <r>    -2.6137     0.1625    72.0816 </r>
       <r>    -2.5217     0.0001    72.0816 </r>
       <r>    -2.4296     0.0000    72.0816 </r>
       <r>    -2.3375     0.0000    72.0816 </r>
       <r>    -2.2455     0.0000    72.0816 </r>
       <r>    -2.1534     0.0001    72.0816 </r>
       <r>    -2.0614     0.3125    72.1104 </r>
       <r>    -1.9693     4.1274    72.4904 </r>
       <r>    -1.8772     0.8792    72.5713 </r>
       <r>    -1.7852     0.0583    72.5767 </r>
       <r>    -1.6931     1.7523    72.7380 </r>
       <r>    -1.6011     0.8470    72.8160 </r>
       <r>    -1.5090     0.0037    72.8163 </r>
       <r>    -1.4169     0.0037    72.8167 </r>
       <r>    -1.3249     1.9794    72.9989 </r>
       <r>    -1.2328    11.3396    74.0428 </r>
       <r>    -1.1408     2.8483    74.3050 </r>
       <r>    -1.0487     3.5114    74.6283 </r>
       <r>    -0.9566     5.7785    75.1603 </r>
       <r>    -0.8646     1.8372    75.3294 </r>
       <r>    -0.7725     4.2172    75.7176 </r>
       <r>    -0.6805     3.3680    76.0277 </r>
       <r>    -0.5884     4.7834    76.4681 </r>
       <r>    -0.4963     2.9855    76.7429 </r>
       <r>    -0.4043     3.7472    77.0879 </r>
       <r>    -0.3122     3.3629    77.3975 </r>
       <r>    -0.2202     5.1724    77.8736 </r>
       <r>    -0.1281     0.9258    77.9589 </r>
       <r>    -0.0360     0.0039    77.9592 </r>
       <r>     0.0560     0.5506    78.0099 </r>
       <r>     0.1481     4.2184    78.3983 </r>
       <r>     0.2401     1.5354    78.5396 </r>
       <r>     0.3322     4.1326    78.9200 </r>
       <r>     0.4243     3.6387    79.2550 </r>
       <r>     0.5163     3.1052    79.5409 </r>
       <r>     0.6084     3.6440    79.8764 </r>
       <r>     0.7004     1.3343    79.9992 </r>
       <r>     0.7925     5.8413    80.5369 </r>
       <r>     0.8846     5.9064    81.0807 </r>
       <r>     0.9766     1.4958    81.2184 </r>
       <r>     1.0687     4.2747    81.6119 </r>
       <r>     1.1607     1.8291    81.7803 </r>
       <r>     1.2528     5.6665    82.3020 </r>
       <r>     1.3449     2.0987    82.4952 </r>
       <r>     1.4369     6.9518    83.1352 </r>
       <r>     1.5290    14.0014    84.4241 </r>
       <r>     1.6210     4.5092    84.8392 </r>
       <r>     1.7131     4.6550    85.2678 </r>
       <r>     1.8052     3.3589    85.5770 </r>
       <r>     1.8972     8.8065    86.3877 </r>
       <r>     1.9893     8.9050    87.2075 </r>
       <r>     2.0813     9.1975    88.0542 </r>
       <r>     2.1734     6.8290    88.6829 </r>
       <r>     2.2655     7.0023    89.3276 </r>
       <r>     2.3575     7.2708    89.9969 </r>
       <r>     2.4496     5.1222    90.4685 </r>
       <r>     2.5416     4.3463    90.8686 </r>
       <r>     2.6337     2.9074    91.1362 </r>
       <r>     2.7258     2.1794    91.3369 </r>
       <r>     2.8178     4.5715    91.7577 </r>
       <r>     2.9099     2.5021    91.9881 </r>
       <r>     3.0019     0.1297    92.0000 </r>
       <r>     3.0940     0.0000    92.0000 </r>
       <r>     3.1861     0.0000    92.0000 </r>
       <r>     3.2781     0.0000    92.0000 </r>
       <r>     3.3702     0.0000    92.0000 </r>
       <r>     3.4622     0.0000    92.0000 </r>
       <r>     3.5543     0.0000    92.0000 </r>
       <r>     3.6464     0.0000    92.0000 </r>
       <r>     3.7384     0.0000    92.0000 </r>
       <r>     3.8305     0.0000    92.0000 </r>
       <r>     3.9225     0.0000    92.0000 </r>
       <r>     4.0146     0.0000    92.0000 </r>
       <r>     4.1067     0.0000    92.0000 </r>
      </set>
     </set>
    </array>
   </total>
  </dos>
 </calculation>
 <structure name="finalpos" >
  <crystal>
   <varray name="basis" >
    <v>       7.40170591       0.00000000       0.00000000 </v>
    <v>      -3.70085295       6.41006527       0.00000000 </v>
    <v>       0.00000000       0.00000000      20.00000000 </v>
   </varray>
   <i name="volume">    948.90835877 </i>
   <varray name="rec_basis" >
    <v>       0.13510399       0.07800233       0.00000000 </v>
    <v>       0.00000000       0.15600465       0.00000000 </v>
    <v>       0.00000000       0.00000000       0.05000000 </v>
   </varray>
  </crystal>
  <varray name="positions" >
   <v>       0.00078002       0.00156005       0.50000000 </v>
   <v>       0.33333333       0.00000000       0.50000000 </v>
   <v>       0.66666667       0.00000000       0.50000000 </v>
   <v>       0.00000000       0.33333333       0.50000000 </v>
   <v>       0.33333333       0.33333333       0.50000000 </v>
   <v>       0.66666667       0.33333333       0.50000000 </v>
   <v>       0.00000000       0.66666667       0.50000000 </v>
   <v>       0.33333333       0.66666667       0.50000000 </v>
   <v>       0.66666667       0.66666667       0.50000000 </v>
   <v>       0.22357326       0.11111111       0.50000000 </v>
   <v>       0.55555556       0.11111111       0.50000000 </v>
   <v>       0.88888889       0.11111111       0.50000000 </v>
   <v>       0.22222222       0.44444444       0.50000000 </v>
   <v>       0.55555556       0.44444444       0.50000000 </v>
   <v>       0.88888889       0.44444444       0.50000000 </v>
   <v>       0.22222222       0.77777778       0.50000000 </v>
   <v>       0.55555556       0.77777778       0.50000000 </v>
   <v>       0.88888889       0.77777778       0.50000000 </v>
  </varray>
 </structure>
</modeling>
