<?xml version="1.0" encoding="ISO-8859-1"?>
<modeling>
 <generator>
  <i name="program" type="string">vasp </i>
  <i name="version" type="string">6.4.1  </i>
  <i name="subversion" type="string">05Apr23 (build Feb 12 2025 00:37:39) complex                          parallel </i>
  <i name="platform" type="string">LinuxIFC </i>
  <i name="date" type="string">2025 02 14 </i>
  <i name="time" type="string">05:47:32 </i>
 </generator>
 <incar>
  <i type="string" name="SYSTEM">SCF</i>
  <i type="int" name="ISTART">     0</i>
  <i type="int" name="ICHARG">     2</i>
  <i type="int" name="NELM">    60</i>
  <i type="int" name="NELMIN">     6</i>
  <i name="EDIFF">      0.00000100</i>
  <i name="EDIFFG">     -0.00000100</i>
  <i name="ENCUT">    600.00000000</i>
  <i type="string" name="LREAL">Auto</i>
  <i type="int" name="ISMEAR">     0</i>
  <i name="SIGMA">      0.05000000</i>
  <i type="logical" name="LWAVE"> F  </i>
  <i type="logical" name="LCHARG"> F  </i>
 </incar>
 <primitive_cell>
  <structure name="primitive_cell" >
   <crystal>
    <varray name="basis" >
     <v>       7.40170591       0.00000000       0.00000000 </v>
     <v>      -3.70085295       6.41006527       0.00000000 </v>
     <v>       0.00000000       0.00000000      20.00000000 </v>
    </varray>
    <i name="volume">    948.90835877 </i>
    <varray name="rec_basis" >
     <v>       0.13510399       0.07800233       0.00000000 </v>
     <v>       0.00000000       0.15600465       0.00000000 </v>
     <v>       0.00000000       0.00000000       0.05000000 </v>
    </varray>
   </crystal>
   <varray name="positions" >
    <v>       0.99864896       0.00000000       0.50000000 </v>
    <v>       0.33333333       0.00000000       0.50000000 </v>
    <v>       0.66666667       0.00000000       0.50000000 </v>
    <v>       1.00000000       0.33333333       0.50000000 </v>
    <v>       0.33333333       0.33333333       0.50000000 </v>
    <v>       0.66666667       0.33333333       0.50000000 </v>
    <v>       1.00000000       0.66666667       0.50000000 </v>
    <v>       0.33333333       0.66666667       0.50000000 </v>
    <v>       0.66666667       0.66666667       0.50000000 </v>
    <v>       0.22144220       0.10955106       0.50000000 </v>
    <v>       0.55555556       0.11111111       0.50000000 </v>
    <v>       0.88888889       0.11111111       0.50000000 </v>
    <v>       0.22222222       0.44444444       0.50000000 </v>
    <v>       0.55555556       0.44444444       0.50000000 </v>
    <v>       0.88888889       0.44444444       0.50000000 </v>
    <v>       0.22222222       0.77777778       0.50000000 </v>
    <v>       0.55555556       0.77777778       0.50000000 </v>
    <v>       0.88888889       0.77777778       0.50000000 </v>
   </varray>
  </structure>
  <varray name="primitive_index" >
   <v type="int" >        1 </v>
   <v type="int" >        2 </v>
   <v type="int" >        3 </v>
   <v type="int" >        4 </v>
   <v type="int" >        5 </v>
   <v type="int" >        6 </v>
   <v type="int" >        7 </v>
   <v type="int" >        8 </v>
   <v type="int" >        9 </v>
   <v type="int" >       10 </v>
   <v type="int" >       11 </v>
   <v type="int" >       12 </v>
   <v type="int" >       13 </v>
   <v type="int" >       14 </v>
   <v type="int" >       15 </v>
   <v type="int" >       16 </v>
   <v type="int" >       17 </v>
   <v type="int" >       18 </v>
  </varray>
 </primitive_cell>
 <kpoints>
  <generation param="Gamma">
   <v type="int" name="divisions">       7        7        1 </v>
   <v name="usershift">      0.00000000       0.00000000       0.00000000 </v>
   <v name="genvec1">      0.14285714       0.00000000       0.00000000 </v>
   <v name="genvec2">      0.00000000       0.14285714       0.00000000 </v>
   <v name="genvec3">      0.00000000       0.00000000       1.00000000 </v>
   <v name="shift">      0.00000000       0.00000000       0.00000000 </v>
  </generation>
  <varray name="kpointlist" >
   <v>       0.00000000       0.00000000       0.00000000 </v>
   <v>       0.14285714       0.00000000       0.00000000 </v>
   <v>       0.00000000       0.14285714       0.00000000 </v>
   <v>      -0.14285714       0.14285714       0.00000000 </v>
   <v>       0.28571429       0.00000000       0.00000000 </v>
   <v>       0.00000000       0.28571429       0.00000000 </v>
   <v>      -0.28571429       0.28571429       0.00000000 </v>
   <v>       0.42857143       0.00000000       0.00000000 </v>
   <v>       0.00000000       0.42857143       0.00000000 </v>
   <v>      -0.42857143       0.42857143       0.00000000 </v>
   <v>       0.14285714       0.14285714       0.00000000 </v>
   <v>      -0.14285714       0.28571429       0.00000000 </v>
   <v>      -0.28571429       0.14285714       0.00000000 </v>
   <v>       0.28571429       0.14285714       0.00000000 </v>
   <v>      -0.14285714       0.42857143       0.00000000 </v>
   <v>      -0.42857143       0.28571429       0.00000000 </v>
   <v>      -0.28571429       0.42857143       0.00000000 </v>
   <v>       0.14285714       0.28571429       0.00000000 </v>
   <v>       0.42857143      -0.14285714       0.00000000 </v>
   <v>       0.42857143       0.14285714       0.00000000 </v>
   <v>      -0.14285714      -0.42857143       0.00000000 </v>
   <v>       0.42857143       0.42857143       0.00000000 </v>
   <v>       0.28571429       0.28571429       0.00000000 </v>
   <v>      -0.28571429      -0.42857143       0.00000000 </v>
   <v>       0.42857143       0.28571429       0.00000000 </v>
  </varray>
  <varray name="weights" >
   <v>       0.02040816 </v>
   <v>       0.04081633 </v>
   <v>       0.04081633 </v>
   <v>       0.04081633 </v>
   <v>       0.04081633 </v>
   <v>       0.04081633 </v>
   <v>       0.04081633 </v>
   <v>       0.04081633 </v>
   <v>       0.04081633 </v>
   <v>       0.04081633 </v>
   <v>       0.04081633 </v>
   <v>       0.04081633 </v>
   <v>       0.04081633 </v>
   <v>       0.04081633 </v>
   <v>       0.04081633 </v>
   <v>       0.04081633 </v>
   <v>       0.04081633 </v>
   <v>       0.04081633 </v>
   <v>       0.04081633 </v>
   <v>       0.04081633 </v>
   <v>       0.04081633 </v>
   <v>       0.04081633 </v>
   <v>       0.04081633 </v>
   <v>       0.04081633 </v>
   <v>       0.04081633 </v>
  </varray>
 </kpoints>
 <parameters>
  <separator name="general" >
   <i type="string" name="SYSTEM">SCF</i>
   <i type="logical" name="LCOMPAT"> F  </i>
  </separator>
  <separator name="electronic" >
   <i type="string" name="PREC">normal</i>
   <i name="ENMAX">    600.00000000</i>
   <i name="ENAUG">    644.87300000</i>
   <i name="EDIFF">      0.00000100</i>
   <i type="int" name="IALGO">    38</i>
   <i type="int" name="IWAVPR">    10</i>
   <i type="int" name="NBANDS">    46</i>
   <i type="int" name="NBANDSLOW">    -1</i>
   <i type="int" name="NBANDSHIGH">    -1</i>
   <i name="NELECT">     72.00000000</i>
   <i type="int" name="TURBO">     0</i>
   <i type="int" name="IRESTART">     0</i>
   <i type="int" name="NREBOOT">     0</i>
   <i type="int" name="NMIN">     0</i>
   <i name="EREF">      0.00000000</i>
   <separator name="electronic smearing" >
    <i type="int" name="ISMEAR">     0</i>
    <i name="SIGMA">      0.05000000</i>
    <i name="KSPACING">      0.50000000</i>
    <i type="logical" name="KGAMMA"> T  </i>
    <i type="logical" name="KBLOWUP"> T  </i>
   </separator>
   <separator name="electronic projectors" >
    <i type="logical" name="LREAL"> T  </i>
    <v name="ROPT">     -0.00050000</v>
    <i type="int" name="LMAXPAW">  -100</i>
    <i type="int" name="LMAXMIX">     2</i>
    <i type="logical" name="NLSPLINE"> F  </i>
   </separator>
   <separator name="electronic startup" >
    <i type="int" name="ISTART">     0</i>
    <i type="int" name="ICHARG">     2</i>
    <i type="int" name="INIWAV">     1</i>
   </separator>
   <separator name="electronic spin" >
    <i type="int" name="ISPIN">     1</i>
    <i type="logical" name="LNONCOLLINEAR"> F  </i>
    <v name="MAGMOM">      1.00000000      1.00000000      1.00000000      1.00000000      1.00000000      1.00000000      1.00000000      1.00000000      1.00000000      1.00000000      1.00000000      1.00000000      1.00000000      1.00000000      1.00000000      1.00000000      1.00000000      1.00000000</v>
    <i name="NUPDOWN">     -1.00000000</i>
    <i type="logical" name="LSORBIT"> F  </i>
    <v name="SAXIS">      0.00000000      0.00000000      1.00000000</v>
    <i type="logical" name="LSPIRAL"> F  </i>
    <v name="QSPIRAL">      0.00000000      0.00000000      0.00000000</v>
    <i type="logical" name="LZEROZ"> F  </i>
   </separator>
   <separator name="electronic exchange-correlation" >
    <i type="logical" name="LASPH"> F  </i>
    <i type="logical" name="LMETAGGA"> F  </i>
   </separator>
   <separator name="electronic convergence" >
    <i type="int" name="NELM">    60</i>
    <i type="int" name="NELMDL">    -5</i>
    <i type="int" name="NELMIN">     6</i>
    <i name="ENINI">    600.00000000</i>
    <separator name="electronic convergence detail" >
     <i type="logical" name="LDIAG"> T  </i>
     <i type="logical" name="LSUBROT"> F  </i>
     <i name="WEIMIN">      0.00000000</i>
     <i name="EBREAK">      0.00000000</i>
     <i name="DEPER">      0.30000000</i>
     <i type="int" name="NRMM">     4</i>
     <i name="TIME">      0.40000000</i>
    </separator>
   </separator>
   <separator name="electronic mixer" >
    <i name="AMIX">      0.40000000</i>
    <i name="BMIX">      1.00000000</i>
    <i name="AMIN">      0.10000000</i>
    <i name="AMIX_MAG">      1.60000000</i>
    <i name="BMIX_MAG">      1.00000000</i>
    <separator name="electronic mixer details" >
     <i type="int" name="IMIX">     4</i>
     <i type="logical" name="MIXFIRST"> F  </i>
     <i type="int" name="MAXMIX">   -45</i>
     <i name="WC">    100.00000000</i>
     <i type="int" name="INIMIX">     1</i>
     <i type="int" name="MIXPRE">     1</i>
     <i type="int" name="MREMOVE">     5</i>
    </separator>
   </separator>
   <separator name="electronic dipolcorrection" >
    <i type="logical" name="LDIPOL"> F  </i>
    <i type="logical" name="LMONO"> F  </i>
    <i type="int" name="IDIPOL">     0</i>
    <i name="EPSILON">      1.00000000</i>
    <v name="DIPOL">   -100.00000000   -100.00000000   -100.00000000</v>
    <i name="EFIELD">      0.00000000</i>
   </separator>
  </separator>
  <separator name="grids" >
   <i type="int" name="NGX">    48</i>
   <i type="int" name="NGY">    48</i>
   <i type="int" name="NGZ">   120</i>
   <i type="int" name="NGXF">    96</i>
   <i type="int" name="NGYF">    96</i>
   <i type="int" name="NGZF">   240</i>
   <i type="logical" name="ADDGRID"> F  </i>
  </separator>
  <separator name="ionic" >
   <i type="int" name="NSW">     0</i>
   <i type="int" name="IBRION">    -1</i>
   <i type="int" name="MDALGO">     0</i>
   <i type="int" name="ISIF">     2</i>
   <i name="PSTRESS">      0.00000000</i>
   <i name="EDIFFG">     -0.00000100</i>
   <i type="int" name="NFREE">     0</i>
   <i name="POTIM">      0.50000000</i>
   <i name="SMASS">     -3.00000000</i>
   <i name="SCALEE">      1.00000000</i>
  </separator>
  <separator name="ionic md" >
   <i name="TEBEG">      0.00010000</i>
   <i name="TEEND">      0.00010000</i>
   <i type="int" name="NBLOCK">     1</i>
   <i type="int" name="KBLOCK">     1</i>
   <i type="int" name="NPACO">   256</i>
   <i name="APACO">     10.00000000</i>
  </separator>
  <separator name="symmetry" >
   <i type="int" name="ISYM">     2</i>
   <i name="SYMPREC">      0.00001000</i>
  </separator>
  <separator name="dos" >
   <i type="int" name="LORBIT">     0</i>
   <v name="RWIGS">     -1.00000000</v>
   <i type="int" name="NEDOS">   301</i>
   <i name="EMIN">     10.00000000</i>
   <i name="EMAX">    -10.00000000</i>
   <i name="EFERMI">      0.00000000</i>
  </separator>
  <separator name="writing" >
   <i type="int" name="NWRITE">     2</i>
   <i type="logical" name="LWAVE"> F  </i>
   <i type="logical" name="LDOWNSAMPLE"> F  </i>
   <i type="logical" name="LCHARG"> F  </i>
   <i type="logical" name="LPARD"> F  </i>
   <i type="logical" name="LVTOT"> F  </i>
   <i type="logical" name="LVHAR"> F  </i>
   <i type="logical" name="LELF"> F  </i>
   <i type="logical" name="LOPTICS"> F  </i>
   <v name="STM">      0.00000000      0.00000000      0.00000000      0.00000000      0.00000000      0.00000000      0.00000000</v>
  </separator>
  <separator name="performance" >
   <i type="int" name="NPAR">     2</i>
   <i type="int" name="NSIM">     4</i>
   <i type="int" name="NBLK">    -1</i>
   <i type="logical" name="LPLANE"> T  </i>
   <i type="logical" name="LSCALAPACK"> T  </i>
   <i type="logical" name="LSCAAWARE"> F  </i>
   <i type="logical" name="LSCALU"> F  </i>
   <i type="logical" name="LASYNC"> F  </i>
   <i type="logical" name="LORBITALREAL"> F  </i>
  </separator>
  <separator name="miscellaneous" >
   <i type="int" name="IDIOT">     3</i>
   <i type="int" name="PHON_NSTRUCT">    -1</i>
   <i type="logical" name="LMUSIC"> F  </i>
   <v name="POMASS">     12.01100000</v>
   <v name="DARWINR">      0.00000000</v>
   <v name="DARWINV">      1.00000000</v>
   <i type="logical" name="LCORR"> T  </i>
  </separator>
  <i type="logical" name="GGA_COMPAT"> T  </i>
  <i type="logical" name="LBERRY"> F  </i>
  <i type="int" name="ICORELEVEL">     0</i>
  <i type="logical" name="LDAU"> F  </i>
  <i type="int" name="I_CONSTRAINED_M">     0</i>
  <separator name="electronic exchange-correlation" >
   <i type="string" name="GGA">--</i>
   <i type="int" name="VOSKOWN">     0</i>
   <i type="logical" name="LHFCALC"> F  </i>
   <i type="string" name="PRECFOCK"></i>
   <i type="logical" name="LSYMGRAD"> F  </i>
   <i type="logical" name="LHFONE"> F  </i>
   <i type="logical" name="LRHFCALC"> F  </i>
   <i type="logical" name="LTHOMAS"> F  </i>
   <i type="logical" name="LMODELHF"> F  </i>
   <i type="logical" name="LFOCKACE"> F  </i>
   <i name="ENCUT4O">     -1.00000000</i>
   <i type="int" name="EXXOEP">     0</i>
   <i type="int" name="FOURORBIT">     0</i>
   <i name="AEXX">      0.00000000</i>
   <i name="HFALPHA">      0.00000000</i>
   <i name="MCALPHA">      0.00000000</i>
   <i name="ALDAX">      1.00000000</i>
   <i name="AGGAX">      1.00000000</i>
   <i name="ALDAC">      1.00000000</i>
   <i name="AGGAC">      1.00000000</i>
   <i type="int" name="NKREDX">     1</i>
   <i type="int" name="NKREDY">     1</i>
   <i type="int" name="NKREDZ">     1</i>
   <i type="logical" name="SHIFTRED"> F  </i>
   <i type="logical" name="ODDONLY"> F  </i>
   <i type="logical" name="EVENONLY"> F  </i>
   <i type="int" name="LMAXFOCK">     0</i>
   <i type="int" name="NMAXFOCKAE">     0</i>
   <i type="logical" name="LFOCKAEDFT"> F  </i>
   <i name="HFSCREEN">      0.00000000</i>
   <i name="HFSCREENC">      0.00000000</i>
   <i type="int" name="NBANDSGWLOW">     0</i>
  </separator>
  <separator name="vdW DFT" >
   <i type="logical" name="LUSE_VDW"> F  </i>
   <i type="int" name="IVDW_NL">     1</i>
   <i type="logical" name="LSPIN_VDW"> F  </i>
   <i name="Zab_VDW">     -0.84910000</i>
   <i name="PARAM1">      0.12340000</i>
   <i name="PARAM2">      1.00000000</i>
   <i name="PARAM3">      0.00000000</i>
  </separator>
  <separator name="model GW" >
   <i type="int" name="MODEL_GW">     0</i>
   <i name="MODEL_EPS0">     31.63027863</i>
   <i name="MODEL_ALPHA">      1.00000000</i>
  </separator>
  <separator name="linear response parameters" >
   <i type="logical" name="LEPSILON"> F  </i>
   <i type="logical" name="LRPA"> F  </i>
   <i type="logical" name="LNABLA"> F  </i>
   <i type="logical" name="LVEL"> F  </i>
   <i name="CSHIFT">      0.10000000</i>
   <i name="OMEGAMAX">     -1.00000000</i>
   <i name="DEG_THRESHOLD">      0.00200000</i>
   <i name="RTIME">     -0.10000000</i>
   <i name="WPLASMAI">      0.00000000</i>
   <v name="DFIELD">      0.00000000      0.00000000      0.00000000</v>
   <v name="WPLASMA">      0.00000000      0.00000000      0.00000000      0.00000000      0.00000000      0.00000000      0.00000000      0.00000000      0.00000000</v>
  </separator>
  <separator name="orbital magnetization" >
   <i type="logical" name="NUCIND"> F  </i>
   <v name="MAGPOS">      0.00000000      0.00000000      0.00000000</v>
   <i type="logical" name="LNICSALL"> T  </i>
   <i type="logical" name="ORBITALMAG"> F  </i>
   <i type="logical" name="LMAGBLOCH"> F  </i>
   <i type="logical" name="LCHIMAG"> F  </i>
   <i type="logical" name="LGAUGE"> T  </i>
   <i type="int" name="MAGATOM">     0</i>
   <v name="MAGDIPOL">      0.00000000      0.00000000      0.00000000</v>
   <v name="AVECCONST">      0.00000000      0.00000000      0.00000000</v>
  </separator>
  <separator name="response functions" >
   <i type="logical" name="LALL_IN_ONE"> F  </i>
   <i type="int" name="IALL_IN_ONE">    -1</i>
   <i type="int" name="NBANDS_WAVE">    -1</i>
   <i type="logical" name="LFINITE_TEMPERATURE"> F  </i>
   <i type="logical" name="LADDER"> F  </i>
   <i type="logical" name="LRPAFORCE"> F  </i>
   <i type="logical" name="LFXC"> F  </i>
   <i type="logical" name="LHARTREE"> T  </i>
   <i type="int" name="IBSE">     0</i>
   <v type="int" name="KPOINT">    -1     0     0     0</v>
   <i type="logical" name="LTCTC"> F  </i>
   <i type="logical" name="LTCTE"> F  </i>
   <i type="logical" name="LTETE"> F  </i>
   <i type="logical" name="LTRIPLET"> F  </i>
   <i type="logical" name="LFXCEPS"> F  </i>
   <i type="logical" name="LFXHEG"> F  </i>
   <i type="int" name="NATURALO">     2</i>
   <i type="logical" name="LHOLEGF"> F  </i>
   <i type="logical" name="L2ORDER"> F  </i>
   <i type="logical" name="LDMP1"> F  </i>
   <i type="logical" name="LMP2LT"> F  </i>
   <i type="logical" name="LSMP2LT"> F  </i>
   <i type="logical" name="LGWLF"> F  </i>
   <i name="ENCUTGW">     -1.60000002</i>
   <i name="ENCUTGWSOFT">     -1.60000002</i>
   <i name="ENCUTLF">     -1.00000000</i>
   <i type="logical" name="LESF_SPLINES"> F  </i>
   <i type="int" name="LMAXMP2">    -1</i>
   <i name="SCISSOR">      0.00000000</i>
   <i type="int" name="NOMEGA">     0</i>
   <i type="int" name="NOMEGAR">     0</i>
   <i type="int" name="NBANDSGW">    -1</i>
   <i type="int" name="NBANDSO">    -1</i>
   <i type="int" name="NBANDSV">    -1</i>
   <i type="int" name="NELMGW">     1</i>
   <i type="int" name="NELMHF">     1</i>
   <i type="int" name="DIM">     3</i>
   <i type="int" name="IESPILON">     4</i>
   <i type="int" name="ANTIRES">     0</i>
   <i name="OMEGAMAX">    -30.00000000</i>
   <i name="OMEGAMIN">    -30.00000000</i>
   <i name="OMEGATL">   -200.00000000</i>
   <i type="int" name="OMEGAGRID">     0</i>
   <i name="CSHIFT">     -0.10000000</i>
   <i type="logical" name="LSELFENERGY"> F  </i>
   <i type="logical" name="LSPECTRAL"> F  </i>
   <i type="logical" name="LSPECTRALGW"> F  </i>
   <i type="logical" name="LSINGLES"> F  </i>
   <i type="logical" name="LFERMIGW"> F  </i>
   <i type="logical" name="ODDONLYGW"> F  </i>
   <i type="logical" name="EVENONLYGW"> F  </i>
   <i type="int" name="NKREDLFX">     1</i>
   <i type="int" name="NKREDLFY">     1</i>
   <i type="int" name="NKREDLFZ">     1</i>
   <i type="int" name="MAXMEM">  2800</i>
   <i type="int" name="TELESCOPE">     0</i>
   <i type="int" name="NTAUPAR">    -1</i>
   <i type="int" name="NOMEGAPAR">    -1</i>
   <i name="DAMP_NEWTON">      0.80000001</i>
   <i name="LAMBDA">      1.00000000</i>
  </separator>
  <separator name="External order field" >
   <i name="OFIELD_KAPPA">      0.00000000</i>
   <v name="OFIELD_K">      0.00000000      0.00000000      0.00000000</v>
   <i name="OFIELD_Q6_NEAR">      0.00000000</i>
   <i name="OFIELD_Q6_FAR">      0.00000000</i>
   <i name="OFIELD_A">      0.00000000</i>
  </separator>
  <separator name="optional k-points parameters" >
   <i type="int" name="KPOINTS_OPT_MODE">     1</i>
   <i type="logical" name="LKPOINTS_OPT"> F  </i>
  </separator>
 </parameters>
 <atominfo>
  <atoms>      18 </atoms>
  <types>       1 </types>
  <array name="atoms" >
   <dimension dim="1">ion</dimension>
   <field type="string">element</field>
   <field type="int">atomtype</field>
   <set>
    <rc><c>C </c><c>   1</c></rc>
    <rc><c>C </c><c>   1</c></rc>
    <rc><c>C </c><c>   1</c></rc>
    <rc><c>C </c><c>   1</c></rc>
    <rc><c>C </c><c>   1</c></rc>
    <rc><c>C </c><c>   1</c></rc>
    <rc><c>C </c><c>   1</c></rc>
    <rc><c>C </c><c>   1</c></rc>
    <rc><c>C </c><c>   1</c></rc>
    <rc><c>C </c><c>   1</c></rc>
    <rc><c>C </c><c>   1</c></rc>
    <rc><c>C </c><c>   1</c></rc>
    <rc><c>C </c><c>   1</c></rc>
    <rc><c>C </c><c>   1</c></rc>
    <rc><c>C </c><c>   1</c></rc>
    <rc><c>C </c><c>   1</c></rc>
    <rc><c>C </c><c>   1</c></rc>
    <rc><c>C </c><c>   1</c></rc>
   </set>
  </array>
  <array name="atomtypes" >
   <dimension dim="1">type</dimension>
   <field type="int">atomspertype</field>
   <field type="string">element</field>
   <field>mass</field>
   <field>valence</field>
   <field type="string">pseudopotential</field>
   <set>
    <rc><c>  18</c><c>C </c><c>     12.01100000</c><c>      4.00000000</c><c>  PAW_PBE C 08Apr2002                   </c></rc>
   </set>
  </array>
 </atominfo>
 <structure name="initialpos" >
  <crystal>
   <varray name="basis" >
    <v>       7.40170591       0.00000000       0.00000000 </v>
    <v>      -3.70085295       6.41006527       0.00000000 </v>
    <v>       0.00000000       0.00000000      20.00000000 </v>
   </varray>
   <i name="volume">    948.90835877 </i>
   <varray name="rec_basis" >
    <v>       0.13510399       0.07800233       0.00000000 </v>
    <v>       0.00000000       0.15600465       0.00000000 </v>
    <v>       0.00000000       0.00000000       0.05000000 </v>
   </varray>
  </crystal>
  <varray name="positions" >
   <v>       0.99864896       0.00000000       0.50000000 </v>
   <v>       0.33333333       0.00000000       0.50000000 </v>
   <v>       0.66666667       0.00000000       0.50000000 </v>
   <v>       0.00000000       0.33333333       0.50000000 </v>
   <v>       0.33333333       0.33333333       0.50000000 </v>
   <v>       0.66666667       0.33333333       0.50000000 </v>
   <v>       0.00000000       0.66666667       0.50000000 </v>
   <v>       0.33333333       0.66666667       0.50000000 </v>
   <v>       0.66666667       0.66666667       0.50000000 </v>
   <v>       0.22144220       0.10955106       0.50000000 </v>
   <v>       0.55555556       0.11111111       0.50000000 </v>
   <v>       0.88888889       0.11111111       0.50000000 </v>
   <v>       0.22222222       0.44444444       0.50000000 </v>
   <v>       0.55555556       0.44444444       0.50000000 </v>
   <v>       0.88888889       0.44444444       0.50000000 </v>
   <v>       0.22222222       0.77777778       0.50000000 </v>
   <v>       0.55555556       0.77777778       0.50000000 </v>
   <v>       0.88888889       0.77777778       0.50000000 </v>
  </varray>
 </structure>
 <calculation>
  <scstep>
   <time name="dav">    5.98    6.22</time>
   <time name="total">    6.07    6.31</time>
   <energy>
    <i name="alphaZ">     28.04858418 </i>
    <i name="ewald">  11638.86650436 </i>
    <i name="hartreedc"> -13553.17846418 </i>
    <i name="XCdc">    237.17757531 </i>
    <i name="pawpsdc">   1953.39683484 </i>
    <i name="pawaedc">  -1963.64613940 </i>
    <i name="eentropy">     -0.00823027 </i>
    <i name="bandstr">   -257.79607035 </i>
    <i name="atom">   2648.70517965 </i>
    <i name="e_fr_energy">    731.56577415 </i>
    <i name="e_wo_entrp">    731.57400442 </i>
    <i name="e_0_energy">    731.56988929 </i>
   </energy>
  </scstep>
  <scstep>
   <time name="dav">    7.94    7.01</time>
   <time name="total">    7.94    7.01</time>
   <energy>
    <i name="e_fr_energy">    -23.98213806 </i>
    <i name="e_wo_entrp">    -23.98194319 </i>
    <i name="e_0_energy">    -23.98204063 </i>
   </energy>
  </scstep>
  <scstep>
   <time name="dav">    6.38    6.62</time>
   <time name="total">    6.38    6.62</time>
   <energy>
    <i name="e_fr_energy">   -172.28162500 </i>
    <i name="e_wo_entrp">   -172.28031371 </i>
    <i name="e_0_energy">   -172.28096935 </i>
   </energy>
  </scstep>
  <scstep>
   <time name="dav">    6.33    6.57</time>
   <time name="total">    6.33    6.57</time>
   <energy>
    <i name="e_fr_energy">   -177.34698580 </i>
    <i name="e_wo_entrp">   -177.34485764 </i>
    <i name="e_0_energy">   -177.34592172 </i>
   </energy>
  </scstep>
  <scstep>
   <time name="dav">    7.23    7.51</time>
   <time name="total">    7.51    7.80</time>
   <energy>
    <i name="e_fr_energy">   -177.48402265 </i>
    <i name="e_wo_entrp">   -177.48189737 </i>
    <i name="e_0_energy">   -177.48296001 </i>
   </energy>
  </scstep>
  <scstep>
   <time name="dav">    5.98    6.20</time>
   <time name="total">    6.32    6.56</time>
   <energy>
    <i name="e_fr_energy">   -169.31654346 </i>
    <i name="e_wo_entrp">   -169.31436751 </i>
    <i name="e_0_energy">   -169.31545549 </i>
   </energy>
  </scstep>
  <scstep>
   <time name="dav">    5.96    5.01</time>
   <time name="total">    6.31    5.37</time>
   <energy>
    <i name="e_fr_energy">   -166.14877589 </i>
    <i name="e_wo_entrp">   -166.14658491 </i>
    <i name="e_0_energy">   -166.14768040 </i>
   </energy>
  </scstep>
  <scstep>
   <time name="dav">    6.24    6.48</time>
   <time name="total">    6.59    6.84</time>
   <energy>
    <i name="e_fr_energy">   -166.08598561 </i>
    <i name="e_wo_entrp">   -166.08380208 </i>
    <i name="e_0_energy">   -166.08489384 </i>
   </energy>
  </scstep>
  <scstep>
   <time name="dav">    6.66    6.91</time>
   <time name="total">    7.00    7.27</time>
   <energy>
    <i name="e_fr_energy">   -166.07315137 </i>
    <i name="e_wo_entrp">   -166.07096469 </i>
    <i name="e_0_energy">   -166.07205803 </i>
   </energy>
  </scstep>
  <scstep>
   <time name="dav">    5.81    6.03</time>
   <time name="total">    6.16    6.39</time>
   <energy>
    <i name="e_fr_energy">   -166.05469105 </i>
    <i name="e_wo_entrp">   -166.05250270 </i>
    <i name="e_0_energy">   -166.05359688 </i>
   </energy>
  </scstep>
  <scstep>
   <time name="dav">    5.78    6.01</time>
   <time name="total">    6.13    6.36</time>
   <energy>
    <i name="e_fr_energy">   -166.05791543 </i>
    <i name="e_wo_entrp">   -166.05572881 </i>
    <i name="e_0_energy">   -166.05682212 </i>
   </energy>
  </scstep>
  <scstep>
   <time name="dav">    5.86    4.88</time>
   <time name="total">    6.21    5.24</time>
   <energy>
    <i name="e_fr_energy">   -166.06274544 </i>
    <i name="e_wo_entrp">   -166.06055870 </i>
    <i name="e_0_energy">   -166.06165207 </i>
   </energy>
  </scstep>
  <scstep>
   <time name="dav">    5.84    6.06</time>
   <time name="total">    6.18    6.42</time>
   <energy>
    <i name="e_fr_energy">   -166.06673829 </i>
    <i name="e_wo_entrp">   -166.06455097 </i>
    <i name="e_0_energy">   -166.06564463 </i>
   </energy>
  </scstep>
  <scstep>
   <time name="dav">    5.61    5.82</time>
   <time name="total">    5.95    6.18</time>
   <energy>
    <i name="e_fr_energy">   -166.07081074 </i>
    <i name="e_wo_entrp">   -166.06862347 </i>
    <i name="e_0_energy">   -166.06971711 </i>
   </energy>
  </scstep>
  <scstep>
   <time name="dav">    5.85    6.08</time>
   <time name="total">    6.20    6.44</time>
   <energy>
    <i name="e_fr_energy">   -166.07203213 </i>
    <i name="e_wo_entrp">   -166.06984489 </i>
    <i name="e_0_energy">   -166.07093851 </i>
   </energy>
  </scstep>
  <scstep>
   <time name="dav">    6.00    6.23</time>
   <time name="total">    6.35    6.60</time>
   <energy>
    <i name="e_fr_energy">   -166.07217769 </i>
    <i name="e_wo_entrp">   -166.06999043 </i>
    <i name="e_0_energy">   -166.07108406 </i>
   </energy>
  </scstep>
  <scstep>
   <time name="dav">    5.73    4.73</time>
   <time name="total">    6.09    5.10</time>
   <energy>
    <i name="e_fr_energy">   -166.07238141 </i>
    <i name="e_wo_entrp">   -166.07019425 </i>
    <i name="e_0_energy">   -166.07128783 </i>
   </energy>
  </scstep>
  <scstep>
   <time name="dav">    5.13    5.32</time>
   <time name="total">    5.47    5.68</time>
   <energy>
    <i name="e_fr_energy">   -166.07243271 </i>
    <i name="e_wo_entrp">   -166.07024550 </i>
    <i name="e_0_energy">   -166.07133910 </i>
   </energy>
  </scstep>
  <scstep>
   <time name="dav">    5.00    5.19</time>
   <time name="total">    5.35    5.56</time>
   <energy>
    <i name="e_fr_energy">   -166.07246735 </i>
    <i name="e_wo_entrp">   -166.07028011 </i>
    <i name="e_0_energy">   -166.07137373 </i>
   </energy>
  </scstep>
  <scstep>
   <time name="dav">    4.87    5.08</time>
   <time name="total">    5.22    5.44</time>
   <energy>
    <i name="e_fr_energy">   -166.07249357 </i>
    <i name="e_wo_entrp">   -166.07030637 </i>
    <i name="e_0_energy">   -166.07139997 </i>
   </energy>
  </scstep>
  <scstep>
   <time name="dav">    3.93    4.10</time>
   <time name="total">    4.28    4.46</time>
   <energy>
    <i name="e_fr_energy">   -166.07250246 </i>
    <i name="e_wo_entrp">   -166.07031523 </i>
    <i name="e_0_energy">   -166.07140884 </i>
   </energy>
  </scstep>
  <scstep>
   <time name="dav">    3.88    4.02</time>
   <time name="total">    4.22    4.38</time>
   <energy>
    <i name="e_fr_energy">   -166.07250551 </i>
    <i name="e_wo_entrp">   -166.07031830 </i>
    <i name="e_0_energy">   -166.07141190 </i>
   </energy>
  </scstep>
  <scstep>
   <time name="dav">    4.03    2.97</time>
   <time name="total">    4.11    3.06</time>
   <energy>
    <i name="alphaZ">     28.04858418 </i>
    <i name="ewald">  11638.86650436 </i>
    <i name="hartreedc"> -13861.51616189 </i>
    <i name="XCdc">    247.81410989 </i>
    <i name="pawpsdc">   7452.86902459 </i>
    <i name="pawaedc">  -7465.13240680 </i>
    <i name="eentropy">     -0.00218721 </i>
    <i name="bandstr">   -855.72515260 </i>
    <i name="atom">   2648.70517965 </i>
    <i name="e_fr_energy">   -166.07250583 </i>
    <i name="e_wo_entrp">   -166.07031862 </i>
    <i name="e_0_energy">   -166.07141222 </i>
   </energy>
  </scstep>
  <structure>
   <crystal>
    <varray name="basis" >
     <v>       7.40170591       0.00000000       0.00000000 </v>
     <v>      -3.70085295       6.41006527       0.00000000 </v>
     <v>       0.00000000       0.00000000      20.00000000 </v>
    </varray>
    <i name="volume">    948.90835877 </i>
    <varray name="rec_basis" >
     <v>       0.13510399       0.07800233       0.00000000 </v>
     <v>       0.00000000       0.15600465       0.00000000 </v>
     <v>       0.00000000       0.00000000       0.05000000 </v>
    </varray>
   </crystal>
   <varray name="positions" >
    <v>       0.99864896       0.00000000       0.50000000 </v>
    <v>       0.33333333       0.00000000       0.50000000 </v>
    <v>       0.66666667       0.00000000       0.50000000 </v>
    <v>       0.00000000       0.33333333       0.50000000 </v>
    <v>       0.33333333       0.33333333       0.50000000 </v>
    <v>       0.66666667       0.33333333       0.50000000 </v>
    <v>       0.00000000       0.66666667       0.50000000 </v>
    <v>       0.33333333       0.66666667       0.50000000 </v>
    <v>       0.66666667       0.66666667       0.50000000 </v>
    <v>       0.22144220       0.10955106       0.50000000 </v>
    <v>       0.55555556       0.11111111       0.50000000 </v>
    <v>       0.88888889       0.11111111       0.50000000 </v>
    <v>       0.22222222       0.44444444       0.50000000 </v>
    <v>       0.55555556       0.44444444       0.50000000 </v>
    <v>       0.88888889       0.44444444       0.50000000 </v>
    <v>       0.22222222       0.77777778       0.50000000 </v>
    <v>       0.55555556       0.77777778       0.50000000 </v>
    <v>       0.88888889       0.77777778       0.50000000 </v>
   </varray>
  </structure>
  <varray name="forces" >
   <v>       0.54757833      -0.14437368       0.00000000 </v>
   <v>       0.00635596      -0.12612972       0.00000000 </v>
   <v>      -0.05104806       0.01131131      -0.00000000 </v>
   <v>      -0.01728413       0.03776100      -0.00000000 </v>
   <v>       0.00553563      -0.27060082      -0.00000000 </v>
   <v>      -0.00769070      -0.00837903       0.00000000 </v>
   <v>       0.00564081       0.04993651      -0.00000000 </v>
   <v>      -0.02041516       0.00715265      -0.00000000 </v>
   <v>      -0.00472056      -0.01186090       0.00000000 </v>
   <v>      -0.20390185       0.53703452       0.00000000 </v>
   <v>       0.01490077       0.02401271       0.00000000 </v>
   <v>      -0.22108416       0.08251442       0.00000000 </v>
   <v>       0.02390839      -0.03176449       0.00000000 </v>
   <v>      -0.02638245      -0.04203487       0.00000000 </v>
   <v>       0.01931119      -0.02018366       0.00000000 </v>
   <v>       0.03756944      -0.05545634       0.00000000 </v>
   <v>       0.01840417      -0.00744030       0.00000000 </v>
   <v>      -0.12667763      -0.03149930      -0.00000000 </v>
  </varray>
  <varray name="stress" >
   <v>      -0.09006468      -0.07024651       0.00000000 </v>
   <v>      -0.07024649      -0.20796823       0.00000000 </v>
   <v>       0.00000000       0.00000000      -0.56407924 </v>
  </varray>
  <energy>
   <i name="e_fr_energy">   -166.07250583 </i>
   <i name="e_wo_entrp">   -166.07031862 </i>
   <i name="e_0_energy">   -166.07141222 </i>
  </energy>
  <time name="totalsc">  143.55  143.04</time>
  <eigenvalues>
   <array>
    <dimension dim="1">band</dimension>
    <dimension dim="2">kpoint</dimension>
    <dimension dim="3">spin</dimension>
    <field>eigene</field>
    <field>occ</field>
    <set>
     <set comment="spin 1">
      <set comment="kpoint 1">
       <r>  -22.2560    1.0000 </r>
       <r>  -19.6974    1.0000 </r>
       <r>  -19.6790    1.0000 </r>
       <r>  -19.6748    1.0000 </r>
       <r>  -19.6733    1.0000 </r>
       <r>  -19.6715    1.0000 </r>
       <r>  -19.6444    1.0000 </r>
       <r>  -15.3579    1.0000 </r>
       <r>  -15.3456    1.0000 </r>
       <r>  -15.3360    1.0000 </r>
       <r>  -15.3237    1.0000 </r>
       <r>  -13.2913    1.0000 </r>
       <r>  -13.2886    1.0000 </r>
       <r>  -12.3977    1.0000 </r>
       <r>  -12.3921    1.0000 </r>
       <r>  -12.3818    1.0000 </r>
       <r>  -12.3714    1.0000 </r>
       <r>  -12.3563    1.0000 </r>
       <r>  -12.3482    1.0000 </r>
       <r>  -10.3600    1.0000 </r>
       <r>   -8.5586    1.0000 </r>
       <r>   -8.5360    1.0000 </r>
       <r>   -8.5249    1.0000 </r>
       <r>   -8.5227    1.0000 </r>
       <r>   -8.5153    1.0000 </r>
       <r>   -8.4834    1.0000 </r>
       <r>   -7.3906    1.0000 </r>
       <r>   -7.3780    1.0000 </r>
       <r>   -7.3718    1.0000 </r>
       <r>   -7.3700    1.0000 </r>
       <r>   -7.3694    1.0000 </r>
       <r>   -7.3457    1.0000 </r>
       <r>   -5.8073    1.0000 </r>
       <r>   -5.7608    1.0000 </r>
       <r>   -2.7702    0.6638 </r>
       <r>   -2.7614    0.5691 </r>
       <r>   -2.7491    0.4305 </r>
       <r>   -2.7403    0.3366 </r>
       <r>    0.5196    0.0000 </r>
       <r>    1.3119    0.0000 </r>
       <r>    1.6354    0.0000 </r>
       <r>    2.1123    0.0000 </r>
       <r>    2.1394    0.0000 </r>
       <r>    2.1428    0.0000 </r>
       <r>    2.1461    0.0000 </r>
       <r>    2.1567    0.0000 </r>
      </set>
      <set comment="kpoint 2">
       <r>  -22.2024    1.0000 </r>
       <r>  -20.3492    1.0000 </r>
       <r>  -19.9872    1.0000 </r>
       <r>  -19.9818    1.0000 </r>
       <r>  -19.2655    1.0000 </r>
       <r>  -19.2594    1.0000 </r>
       <r>  -18.9059    1.0000 </r>
       <r>  -15.9999    1.0000 </r>
       <r>  -15.9906    1.0000 </r>
       <r>  -14.9234    1.0000 </r>
       <r>  -14.9038    1.0000 </r>
       <r>  -13.5960    1.0000 </r>
       <r>  -12.9807    1.0000 </r>
       <r>  -12.9705    1.0000 </r>
       <r>  -12.9571    1.0000 </r>
       <r>  -12.9461    1.0000 </r>
       <r>  -11.7443    1.0000 </r>
       <r>  -11.7292    1.0000 </r>
       <r>  -11.1146    1.0000 </r>
       <r>  -10.2960    1.0000 </r>
       <r>   -8.8745    1.0000 </r>
       <r>   -8.8560    1.0000 </r>
       <r>   -8.8276    1.0000 </r>
       <r>   -8.5174    1.0000 </r>
       <r>   -8.4970    1.0000 </r>
       <r>   -8.1340    1.0000 </r>
       <r>   -8.1277    1.0000 </r>
       <r>   -7.7161    1.0000 </r>
       <r>   -7.7104    1.0000 </r>
       <r>   -6.9263    1.0000 </r>
       <r>   -6.9184    1.0000 </r>
       <r>   -6.5580    1.0000 </r>
       <r>   -6.0035    1.0000 </r>
       <r>   -5.9006    1.0000 </r>
       <r>   -3.5355    1.0000 </r>
       <r>   -3.5176    1.0000 </r>
       <r>   -2.0158    0.0000 </r>
       <r>   -1.9937    0.0000 </r>
       <r>    0.5923    0.0000 </r>
       <r>    0.8777    0.0000 </r>
       <r>    1.3855    0.0000 </r>
       <r>    1.4637    0.0000 </r>
       <r>    1.4821    0.0000 </r>
       <r>    1.7099    0.0000 </r>
       <r>    2.6300    0.0000 </r>
       <r>    2.7541    0.0000 </r>
      </set>
      <set comment="kpoint 3">
       <r>  -22.2024    1.0000 </r>
       <r>  -20.3491    1.0000 </r>
       <r>  -19.9934    1.0000 </r>
       <r>  -19.9756    1.0000 </r>
       <r>  -19.2717    1.0000 </r>
       <r>  -19.2534    1.0000 </r>
       <r>  -18.9057    1.0000 </r>
       <r>  -16.0060    1.0000 </r>
       <r>  -15.9840    1.0000 </r>
       <r>  -14.9228    1.0000 </r>
       <r>  -14.9054    1.0000 </r>
       <r>  -13.5927    1.0000 </r>
       <r>  -12.9832    1.0000 </r>
       <r>  -12.9713    1.0000 </r>
       <r>  -12.9560    1.0000 </r>
       <r>  -12.9466    1.0000 </r>
       <r>  -11.7447    1.0000 </r>
       <r>  -11.7334    1.0000 </r>
       <r>  -11.1103    1.0000 </r>
       <r>  -10.2960    1.0000 </r>
       <r>   -8.8739    1.0000 </r>
       <r>   -8.8506    1.0000 </r>
       <r>   -8.8343    1.0000 </r>
       <r>   -8.5144    1.0000 </r>
       <r>   -8.4929    1.0000 </r>
       <r>   -8.1402    1.0000 </r>
       <r>   -8.1284    1.0000 </r>
       <r>   -7.7209    1.0000 </r>
       <r>   -7.7042    1.0000 </r>
       <r>   -6.9300    1.0000 </r>
       <r>   -6.9136    1.0000 </r>
       <r>   -6.5600    1.0000 </r>
       <r>   -5.9918    1.0000 </r>
       <r>   -5.9123    1.0000 </r>
       <r>   -3.5340    1.0000 </r>
       <r>   -3.5187    1.0000 </r>
       <r>   -2.0130    0.0000 </r>
       <r>   -1.9968    0.0000 </r>
       <r>    0.5922    0.0000 </r>
       <r>    0.8826    0.0000 </r>
       <r>    1.3855    0.0000 </r>
       <r>    1.4604    0.0000 </r>
       <r>    1.4823    0.0000 </r>
       <r>    1.7099    0.0000 </r>
       <r>    2.6300    0.0000 </r>
       <r>    2.7463    0.0000 </r>
      </set>
      <set comment="kpoint 4">
       <r>  -22.2025    1.0000 </r>
       <r>  -20.3497    1.0000 </r>
       <r>  -19.9906    1.0000 </r>
       <r>  -19.9775    1.0000 </r>
       <r>  -19.2693    1.0000 </r>
       <r>  -19.2556    1.0000 </r>
       <r>  -18.9061    1.0000 </r>
       <r>  -16.0038    1.0000 </r>
       <r>  -15.9880    1.0000 </r>
       <r>  -14.9165    1.0000 </r>
       <r>  -14.9077    1.0000 </r>
       <r>  -13.6052    1.0000 </r>
       <r>  -12.9765    1.0000 </r>
       <r>  -12.9717    1.0000 </r>
       <r>  -12.9519    1.0000 </r>
       <r>  -12.9476    1.0000 </r>
       <r>  -11.7329    1.0000 </r>
       <r>  -11.7268    1.0000 </r>
       <r>  -11.1269    1.0000 </r>
       <r>  -10.2960    1.0000 </r>
       <r>   -8.8768    1.0000 </r>
       <r>   -8.8628    1.0000 </r>
       <r>   -8.8174    1.0000 </r>
       <r>   -8.5213    1.0000 </r>
       <r>   -8.5101    1.0000 </r>
       <r>   -8.1256    1.0000 </r>
       <r>   -8.1185    1.0000 </r>
       <r>   -7.7210    1.0000 </r>
       <r>   -7.7088    1.0000 </r>
       <r>   -6.9299    1.0000 </r>
       <r>   -6.9182    1.0000 </r>
       <r>   -6.5525    1.0000 </r>
       <r>   -6.0260    1.0000 </r>
       <r>   -5.8777    1.0000 </r>
       <r>   -3.5309    1.0000 </r>
       <r>   -3.5232    1.0000 </r>
       <r>   -2.0071    0.0000 </r>
       <r>   -2.0011    0.0000 </r>
       <r>    0.5923    0.0000 </r>
       <r>    0.8644    0.0000 </r>
       <r>    1.3855    0.0000 </r>
       <r>    1.4704    0.0000 </r>
       <r>    1.4841    0.0000 </r>
       <r>    1.7099    0.0000 </r>
       <r>    2.6300    0.0000 </r>
       <r>    2.7582    0.0000 </r>
      </set>
      <set comment="kpoint 5">
       <r>  -22.0419    1.0000 </r>
       <r>  -20.9267    1.0000 </r>
       <r>  -20.1956    1.0000 </r>
       <r>  -20.1902    1.0000 </r>
       <r>  -18.7583    1.0000 </r>
       <r>  -18.7523    1.0000 </r>
       <r>  -18.0630    1.0000 </r>
       <r>  -16.7485    1.0000 </r>
       <r>  -16.7417    1.0000 </r>
       <r>  -14.7520    1.0000 </r>
       <r>  -14.6333    1.0000 </r>
       <r>  -14.6160    1.0000 </r>
       <r>  -13.5073    1.0000 </r>
       <r>  -13.4929    1.0000 </r>
       <r>  -12.1920    1.0000 </r>
       <r>  -12.1751    1.0000 </r>
       <r>  -11.1075    1.0000 </r>
       <r>  -11.0930    1.0000 </r>
       <r>  -10.1048    1.0000 </r>
       <r>   -9.8572    1.0000 </r>
       <r>   -9.5038    1.0000 </r>
       <r>   -9.4845    1.0000 </r>
       <r>   -9.0408    1.0000 </r>
       <r>   -8.7921    1.0000 </r>
       <r>   -8.7674    1.0000 </r>
       <r>   -8.7494    1.0000 </r>
       <r>   -7.9470    1.0000 </r>
       <r>   -7.9418    1.0000 </r>
       <r>   -7.6747    1.0000 </r>
       <r>   -6.6178    1.0000 </r>
       <r>   -6.3818    1.0000 </r>
       <r>   -6.3726    1.0000 </r>
       <r>   -6.2206    1.0000 </r>
       <r>   -5.7667    1.0000 </r>
       <r>   -4.3064    1.0000 </r>
       <r>   -4.2910    1.0000 </r>
       <r>   -1.2946    0.0000 </r>
       <r>   -1.2715    0.0000 </r>
       <r>   -0.2343    0.0000 </r>
       <r>    0.7770    0.0000 </r>
       <r>    0.7974    0.0000 </r>
       <r>    0.8102    0.0000 </r>
       <r>    1.6063    0.0000 </r>
       <r>    1.9333    0.0000 </r>
       <r>    2.3341    0.0000 </r>
       <r>    2.8513    0.0000 </r>
      </set>
      <set comment="kpoint 6">
       <r>  -22.0419    1.0000 </r>
       <r>  -20.9266    1.0000 </r>
       <r>  -20.2018    1.0000 </r>
       <r>  -20.1842    1.0000 </r>
       <r>  -18.7648    1.0000 </r>
       <r>  -18.7459    1.0000 </r>
       <r>  -18.0632    1.0000 </r>
       <r>  -16.7555    1.0000 </r>
       <r>  -16.7342    1.0000 </r>
       <r>  -14.7481    1.0000 </r>
       <r>  -14.6326    1.0000 </r>
       <r>  -14.6190    1.0000 </r>
       <r>  -13.5071    1.0000 </r>
       <r>  -13.4961    1.0000 </r>
       <r>  -12.1912    1.0000 </r>
       <r>  -12.1744    1.0000 </r>
       <r>  -11.1092    1.0000 </r>
       <r>  -11.0981    1.0000 </r>
       <r>  -10.1048    1.0000 </r>
       <r>   -9.8525    1.0000 </r>
       <r>   -9.5037    1.0000 </r>
       <r>   -9.4806    1.0000 </r>
       <r>   -9.0459    1.0000 </r>
       <r>   -8.7925    1.0000 </r>
       <r>   -8.7627    1.0000 </r>
       <r>   -8.7450    1.0000 </r>
       <r>   -7.9521    1.0000 </r>
       <r>   -7.9354    1.0000 </r>
       <r>   -7.6813    1.0000 </r>
       <r>   -6.6084    1.0000 </r>
       <r>   -6.3848    1.0000 </r>
       <r>   -6.3686    1.0000 </r>
       <r>   -6.2304    1.0000 </r>
       <r>   -5.7699    1.0000 </r>
       <r>   -4.3062    1.0000 </r>
       <r>   -4.2907    1.0000 </r>
       <r>   -1.2921    0.0000 </r>
       <r>   -1.2749    0.0000 </r>
       <r>   -0.2281    0.0000 </r>
       <r>    0.7755    0.0000 </r>
       <r>    0.7962    0.0000 </r>
       <r>    0.8102    0.0000 </r>
       <r>    1.6063    0.0000 </r>
       <r>    1.9333    0.0000 </r>
       <r>    2.3341    0.0000 </r>
       <r>    2.8513    0.0000 </r>
      </set>
      <set comment="kpoint 7">
       <r>  -22.0420    1.0000 </r>
       <r>  -20.9270    1.0000 </r>
       <r>  -20.1989    1.0000 </r>
       <r>  -20.1859    1.0000 </r>
       <r>  -18.7625    1.0000 </r>
       <r>  -18.7484    1.0000 </r>
       <r>  -18.0626    1.0000 </r>
       <r>  -16.7535    1.0000 </r>
       <r>  -16.7378    1.0000 </r>
       <r>  -14.7612    1.0000 </r>
       <r>  -14.6250    1.0000 </r>
       <r>  -14.6195    1.0000 </r>
       <r>  -13.4991    1.0000 </r>
       <r>  -13.4939    1.0000 </r>
       <r>  -12.1905    1.0000 </r>
       <r>  -12.1805    1.0000 </r>
       <r>  -11.0935    1.0000 </r>
       <r>  -11.0873    1.0000 </r>
       <r>  -10.1046    1.0000 </r>
       <r>   -9.8720    1.0000 </r>
       <r>   -9.5064    1.0000 </r>
       <r>   -9.4919    1.0000 </r>
       <r>   -9.0282    1.0000 </r>
       <r>   -8.7908    1.0000 </r>
       <r>   -8.7749    1.0000 </r>
       <r>   -8.7646    1.0000 </r>
       <r>   -7.9523    1.0000 </r>
       <r>   -7.9400    1.0000 </r>
       <r>   -7.6573    1.0000 </r>
       <r>   -6.6412    1.0000 </r>
       <r>   -6.3844    1.0000 </r>
       <r>   -6.3732    1.0000 </r>
       <r>   -6.1963    1.0000 </r>
       <r>   -5.7580    1.0000 </r>
       <r>   -4.3041    1.0000 </r>
       <r>   -4.2952    1.0000 </r>
       <r>   -1.2852    0.0000 </r>
       <r>   -1.2785    0.0000 </r>
       <r>   -0.2512    0.0000 </r>
       <r>    0.7846    0.0000 </r>
       <r>    0.7966    0.0000 </r>
       <r>    0.8102    0.0000 </r>
       <r>    1.6063    0.0000 </r>
       <r>    1.9333    0.0000 </r>
       <r>    2.3341    0.0000 </r>
       <r>    2.8514    0.0000 </r>
      </set>
      <set comment="kpoint 8">
       <r>  -21.7752    1.0000 </r>
       <r>  -21.4026    1.0000 </r>
       <r>  -20.3002    1.0000 </r>
       <r>  -20.2947    1.0000 </r>
       <r>  -18.1612    1.0000 </r>
       <r>  -18.1553    1.0000 </r>
       <r>  -17.4844    1.0000 </r>
       <r>  -17.4782    1.0000 </r>
       <r>  -17.2296    1.0000 </r>
       <r>  -15.7431    1.0000 </r>
       <r>  -14.3311    1.0000 </r>
       <r>  -14.3153    1.0000 </r>
       <r>  -13.9587    1.0000 </r>
       <r>  -13.9440    1.0000 </r>
       <r>  -11.2673    1.0000 </r>
       <r>  -11.2494    1.0000 </r>
       <r>  -10.6061    1.0000 </r>
       <r>  -10.5962    1.0000 </r>
       <r>  -10.3358    1.0000 </r>
       <r>  -10.3174    1.0000 </r>
       <r>   -9.7880    1.0000 </r>
       <r>   -9.3485    1.0000 </r>
       <r>   -9.1469    1.0000 </r>
       <r>   -9.0917    1.0000 </r>
       <r>   -9.0810    1.0000 </r>
       <r>   -8.6422    1.0000 </r>
       <r>   -8.0633    1.0000 </r>
       <r>   -8.0583    1.0000 </r>
       <r>   -7.5343    1.0000 </r>
       <r>   -7.1724    1.0000 </r>
       <r>   -6.6678    1.0000 </r>
       <r>   -5.7522    1.0000 </r>
       <r>   -5.7415    1.0000 </r>
       <r>   -5.2009    1.0000 </r>
       <r>   -5.0534    1.0000 </r>
       <r>   -5.0401    1.0000 </r>
       <r>   -0.9656    0.0000 </r>
       <r>   -0.5968    0.0000 </r>
       <r>   -0.5737    0.0000 </r>
       <r>    0.0907    0.0000 </r>
       <r>    0.1125    0.0000 </r>
       <r>    1.1735    0.0000 </r>
       <r>    1.6817    0.0000 </r>
       <r>    1.9737    0.0000 </r>
       <r>    2.3057    0.0000 </r>
       <r>    2.4866    0.0000 </r>
      </set>
      <set comment="kpoint 9">
       <r>  -21.7751    1.0000 </r>
       <r>  -21.4026    1.0000 </r>
       <r>  -20.3063    1.0000 </r>
       <r>  -20.2888    1.0000 </r>
       <r>  -18.1680    1.0000 </r>
       <r>  -18.1485    1.0000 </r>
       <r>  -17.4913    1.0000 </r>
       <r>  -17.4709    1.0000 </r>
       <r>  -17.2312    1.0000 </r>
       <r>  -15.7384    1.0000 </r>
       <r>  -14.3300    1.0000 </r>
       <r>  -14.3181    1.0000 </r>
       <r>  -13.9584    1.0000 </r>
       <r>  -13.9473    1.0000 </r>
       <r>  -11.2671    1.0000 </r>
       <r>  -11.2472    1.0000 </r>
       <r>  -10.6105    1.0000 </r>
       <r>  -10.6023    1.0000 </r>
       <r>  -10.3361    1.0000 </r>
       <r>  -10.3147    1.0000 </r>
       <r>   -9.7881    1.0000 </r>
       <r>   -9.3488    1.0000 </r>
       <r>   -9.1537    1.0000 </r>
       <r>   -9.0846    1.0000 </r>
       <r>   -9.0739    1.0000 </r>
       <r>   -8.6354    1.0000 </r>
       <r>   -8.0685    1.0000 </r>
       <r>   -8.0518    1.0000 </r>
       <r>   -7.5263    1.0000 </r>
       <r>   -7.1798    1.0000 </r>
       <r>   -6.6763    1.0000 </r>
       <r>   -5.7543    1.0000 </r>
       <r>   -5.7384    1.0000 </r>
       <r>   -5.2055    1.0000 </r>
       <r>   -5.0543    1.0000 </r>
       <r>   -5.0385    1.0000 </r>
       <r>   -0.9580    0.0000 </r>
       <r>   -0.5951    0.0000 </r>
       <r>   -0.5766    0.0000 </r>
       <r>    0.0908    0.0000 </r>
       <r>    0.1102    0.0000 </r>
       <r>    1.1734    0.0000 </r>
       <r>    1.6817    0.0000 </r>
       <r>    1.9736    0.0000 </r>
       <r>    2.3057    0.0000 </r>
       <r>    2.4865    0.0000 </r>
      </set>
      <set comment="kpoint 10">
       <r>  -21.7752    1.0000 </r>
       <r>  -21.4030    1.0000 </r>
       <r>  -20.3035    1.0000 </r>
       <r>  -20.2905    1.0000 </r>
       <r>  -18.1659    1.0000 </r>
       <r>  -18.1514    1.0000 </r>
       <r>  -17.4893    1.0000 </r>
       <r>  -17.4744    1.0000 </r>
       <r>  -17.2251    1.0000 </r>
       <r>  -15.7557    1.0000 </r>
       <r>  -14.3224    1.0000 </r>
       <r>  -14.3176    1.0000 </r>
       <r>  -13.9508    1.0000 </r>
       <r>  -13.9457    1.0000 </r>
       <r>  -11.2676    1.0000 </r>
       <r>  -11.2550    1.0000 </r>
       <r>  -10.5882    1.0000 </r>
       <r>  -10.5824    1.0000 </r>
       <r>  -10.3381    1.0000 </r>
       <r>  -10.3237    1.0000 </r>
       <r>   -9.7875    1.0000 </r>
       <r>   -9.3478    1.0000 </r>
       <r>   -9.1365    1.0000 </r>
       <r>   -9.1085    1.0000 </r>
       <r>   -9.0973    1.0000 </r>
       <r>   -8.6591    1.0000 </r>
       <r>   -8.0688    1.0000 </r>
       <r>   -8.0564    1.0000 </r>
       <r>   -7.5542    1.0000 </r>
       <r>   -7.1535    1.0000 </r>
       <r>   -6.6454    1.0000 </r>
       <r>   -5.7536    1.0000 </r>
       <r>   -5.7430    1.0000 </r>
       <r>   -5.1886    1.0000 </r>
       <r>   -5.0529    1.0000 </r>
       <r>   -5.0425    1.0000 </r>
       <r>   -0.9872    0.0000 </r>
       <r>   -0.5871    0.0000 </r>
       <r>   -0.5790    0.0000 </r>
       <r>    0.0991    0.0000 </r>
       <r>    0.1093    0.0000 </r>
       <r>    1.1735    0.0000 </r>
       <r>    1.6817    0.0000 </r>
       <r>    1.9737    0.0000 </r>
       <r>    2.3057    0.0000 </r>
       <r>    2.4868    0.0000 </r>
      </set>
      <set comment="kpoint 11">
       <r>  -22.0954    1.0000 </r>
       <r>  -20.6157    1.0000 </r>
       <r>  -20.6064    1.0000 </r>
       <r>  -19.5294    1.0000 </r>
       <r>  -19.5101    1.0000 </r>
       <r>  -18.4598    1.0000 </r>
       <r>  -18.4498    1.0000 </r>
       <r>  -16.7796    1.0000 </r>
       <r>  -16.1551    1.0000 </r>
       <r>  -15.2541    1.0000 </r>
       <r>  -14.2465    1.0000 </r>
       <r>  -14.1666    1.0000 </r>
       <r>  -14.1427    1.0000 </r>
       <r>  -12.6139    1.0000 </r>
       <r>  -12.3177    1.0000 </r>
       <r>  -12.3140    1.0000 </r>
       <r>  -12.2622    1.0000 </r>
       <r>  -10.4982    1.0000 </r>
       <r>  -10.4676    1.0000 </r>
       <r>  -10.1685    1.0000 </r>
       <r>   -9.1804    1.0000 </r>
       <r>   -9.1572    1.0000 </r>
       <r>   -9.1348    1.0000 </r>
       <r>   -9.1170    1.0000 </r>
       <r>   -8.4300    1.0000 </r>
       <r>   -8.4229    1.0000 </r>
       <r>   -8.0931    1.0000 </r>
       <r>   -8.0650    1.0000 </r>
       <r>   -7.1978    1.0000 </r>
       <r>   -7.1789    1.0000 </r>
       <r>   -6.3871    1.0000 </r>
       <r>   -6.1526    1.0000 </r>
       <r>   -6.1098    1.0000 </r>
       <r>   -6.1052    1.0000 </r>
       <r>   -4.2641    1.0000 </r>
       <r>   -3.8889    1.0000 </r>
       <r>   -1.7246    0.0000 </r>
       <r>   -1.2555    0.0000 </r>
       <r>    0.2736    0.0000 </r>
       <r>    0.2862    0.0000 </r>
       <r>    0.7375    0.0000 </r>
       <r>    1.5327    0.0000 </r>
       <r>    1.8588    0.0000 </r>
       <r>    1.9912    0.0000 </r>
       <r>    2.0169    0.0000 </r>
       <r>    2.7776    0.0000 </r>
      </set>
      <set comment="kpoint 12">
       <r>  -22.0954    1.0000 </r>
       <r>  -20.6188    1.0000 </r>
       <r>  -20.6035    1.0000 </r>
       <r>  -19.5245    1.0000 </r>
       <r>  -19.5142    1.0000 </r>
       <r>  -18.4631    1.0000 </r>
       <r>  -18.4468    1.0000 </r>
       <r>  -16.7787    1.0000 </r>
       <r>  -16.1633    1.0000 </r>
       <r>  -15.2368    1.0000 </r>
       <r>  -14.2581    1.0000 </r>
       <r>  -14.1692    1.0000 </r>
       <r>  -14.1496    1.0000 </r>
       <r>  -12.6027    1.0000 </r>
       <r>  -12.3135    1.0000 </r>
       <r>  -12.3008    1.0000 </r>
       <r>  -12.2685    1.0000 </r>
       <r>  -10.5017    1.0000 </r>
       <r>  -10.4734    1.0000 </r>
       <r>  -10.1684    1.0000 </r>
       <r>   -9.1966    1.0000 </r>
       <r>   -9.1662    1.0000 </r>
       <r>   -9.1300    1.0000 </r>
       <r>   -9.1105    1.0000 </r>
       <r>   -8.4321    1.0000 </r>
       <r>   -8.4200    1.0000 </r>
       <r>   -8.0884    1.0000 </r>
       <r>   -8.0578    1.0000 </r>
       <r>   -7.1972    1.0000 </r>
       <r>   -7.1859    1.0000 </r>
       <r>   -6.4148    1.0000 </r>
       <r>   -6.1241    1.0000 </r>
       <r>   -6.1098    1.0000 </r>
       <r>   -6.0973    1.0000 </r>
       <r>   -4.2562    1.0000 </r>
       <r>   -3.9021    1.0000 </r>
       <r>   -1.7066    0.0000 </r>
       <r>   -1.2677    0.0000 </r>
       <r>    0.2613    0.0000 </r>
       <r>    0.2812    0.0000 </r>
       <r>    0.7376    0.0000 </r>
       <r>    1.5327    0.0000 </r>
       <r>    1.8588    0.0000 </r>
       <r>    2.0053    0.0000 </r>
       <r>    2.0226    0.0000 </r>
       <r>    2.7776    0.0000 </r>
      </set>
      <set comment="kpoint 13">
       <r>  -22.0954    1.0000 </r>
       <r>  -20.6177    1.0000 </r>
       <r>  -20.6046    1.0000 </r>
       <r>  -19.5281    1.0000 </r>
       <r>  -19.5103    1.0000 </r>
       <r>  -18.4619    1.0000 </r>
       <r>  -18.4481    1.0000 </r>
       <r>  -16.7782    1.0000 </r>
       <r>  -16.1666    1.0000 </r>
       <r>  -15.2306    1.0000 </r>
       <r>  -14.2630    1.0000 </r>
       <r>  -14.1709    1.0000 </r>
       <r>  -14.1504    1.0000 </r>
       <r>  -12.5991    1.0000 </r>
       <r>  -12.3089    1.0000 </r>
       <r>  -12.2952    1.0000 </r>
       <r>  -12.2744    1.0000 </r>
       <r>  -10.5034    1.0000 </r>
       <r>  -10.4749    1.0000 </r>
       <r>  -10.1683    1.0000 </r>
       <r>   -9.1971    1.0000 </r>
       <r>   -9.1738    1.0000 </r>
       <r>   -9.1280    1.0000 </r>
       <r>   -9.1094    1.0000 </r>
       <r>   -8.4310    1.0000 </r>
       <r>   -8.4206    1.0000 </r>
       <r>   -8.0852    1.0000 </r>
       <r>   -8.0565    1.0000 </r>
       <r>   -7.2008    1.0000 </r>
       <r>   -7.1846    1.0000 </r>
       <r>   -6.4240    1.0000 </r>
       <r>   -6.1148    1.0000 </r>
       <r>   -6.1080    1.0000 </r>
       <r>   -6.0963    1.0000 </r>
       <r>   -4.2532    1.0000 </r>
       <r>   -3.9070    1.0000 </r>
       <r>   -1.7001    0.0000 </r>
       <r>   -1.2722    0.0000 </r>
       <r>    0.2587    0.0000 </r>
       <r>    0.2776    0.0000 </r>
       <r>    0.7376    0.0000 </r>
       <r>    1.5327    0.0000 </r>
       <r>    1.8588    0.0000 </r>
       <r>    2.0067    0.0000 </r>
       <r>    2.0284    0.0000 </r>
       <r>    2.7776    0.0000 </r>
      </set>
      <set comment="kpoint 14">
       <r>  -21.8817    1.0000 </r>
       <r>  -21.1380    1.0000 </r>
       <r>  -20.7688    1.0000 </r>
       <r>  -19.6749    1.0000 </r>
       <r>  -18.9583    1.0000 </r>
       <r>  -17.9170    1.0000 </r>
       <r>  -17.5939    1.0000 </r>
       <r>  -17.5730    1.0000 </r>
       <r>  -16.6675    1.0000 </r>
       <r>  -15.2657    1.0000 </r>
       <r>  -15.2470    1.0000 </r>
       <r>  -14.6289    1.0000 </r>
       <r>  -13.7180    1.0000 </r>
       <r>  -12.8298    1.0000 </r>
       <r>  -11.9094    1.0000 </r>
       <r>  -11.6902    1.0000 </r>
       <r>  -11.3802    1.0000 </r>
       <r>  -10.0300    1.0000 </r>
       <r>   -9.9145    1.0000 </r>
       <r>   -9.9135    1.0000 </r>
       <r>   -9.7183    1.0000 </r>
       <r>   -9.6203    1.0000 </r>
       <r>   -9.2859    1.0000 </r>
       <r>   -9.2627    1.0000 </r>
       <r>   -9.0375    1.0000 </r>
       <r>   -8.6070    1.0000 </r>
       <r>   -8.2636    1.0000 </r>
       <r>   -7.5788    1.0000 </r>
       <r>   -7.3530    1.0000 </r>
       <r>   -7.1276    1.0000 </r>
       <r>   -6.5642    1.0000 </r>
       <r>   -6.5614    1.0000 </r>
       <r>   -5.5871    1.0000 </r>
       <r>   -5.3882    1.0000 </r>
       <r>   -5.0793    1.0000 </r>
       <r>   -4.4228    1.0000 </r>
       <r>   -1.3117    0.0000 </r>
       <r>   -0.6805    0.0000 </r>
       <r>   -0.4155    0.0000 </r>
       <r>   -0.2868    0.0000 </r>
       <r>    1.0282    0.0000 </r>
       <r>    1.2152    0.0000 </r>
       <r>    1.8268    0.0000 </r>
       <r>    2.0447    0.0000 </r>
       <r>    2.1567    0.0000 </r>
       <r>    2.3983    0.0000 </r>
      </set>
      <set comment="kpoint 15">
       <r>  -21.8817    1.0000 </r>
       <r>  -21.1379    1.0000 </r>
       <r>  -20.7690    1.0000 </r>
       <r>  -19.6747    1.0000 </r>
       <r>  -18.9579    1.0000 </r>
       <r>  -17.9165    1.0000 </r>
       <r>  -17.5948    1.0000 </r>
       <r>  -17.5725    1.0000 </r>
       <r>  -16.6721    1.0000 </r>
       <r>  -15.2489    1.0000 </r>
       <r>  -15.2456    1.0000 </r>
       <r>  -14.6422    1.0000 </r>
       <r>  -13.7330    1.0000 </r>
       <r>  -12.8163    1.0000 </r>
       <r>  -11.8931    1.0000 </r>
       <r>  -11.6854    1.0000 </r>
       <r>  -11.3914    1.0000 </r>
       <r>  -10.0474    1.0000 </r>
       <r>   -9.9286    1.0000 </r>
       <r>   -9.9143    1.0000 </r>
       <r>   -9.7016    1.0000 </r>
       <r>   -9.6270    1.0000 </r>
       <r>   -9.2910    1.0000 </r>
       <r>   -9.2506    1.0000 </r>
       <r>   -9.0384    1.0000 </r>
       <r>   -8.6057    1.0000 </r>
       <r>   -8.2442    1.0000 </r>
       <r>   -7.5921    1.0000 </r>
       <r>   -7.3534    1.0000 </r>
       <r>   -7.1390    1.0000 </r>
       <r>   -6.5699    1.0000 </r>
       <r>   -6.5493    1.0000 </r>
       <r>   -5.5752    1.0000 </r>
       <r>   -5.3915    1.0000 </r>
       <r>   -5.0715    1.0000 </r>
       <r>   -4.4365    1.0000 </r>
       <r>   -1.2907    0.0000 </r>
       <r>   -0.6748    0.0000 </r>
       <r>   -0.4304    0.0000 </r>
       <r>   -0.3097    0.0000 </r>
       <r>    1.0282    0.0000 </r>
       <r>    1.2309    0.0000 </r>
       <r>    1.8268    0.0000 </r>
       <r>    2.0446    0.0000 </r>
       <r>    2.1567    0.0000 </r>
       <r>    2.3996    0.0000 </r>
      </set>
      <set comment="kpoint 16">
       <r>  -21.8818    1.0000 </r>
       <r>  -21.1382    1.0000 </r>
       <r>  -20.7685    1.0000 </r>
       <r>  -19.6741    1.0000 </r>
       <r>  -18.9582    1.0000 </r>
       <r>  -17.9172    1.0000 </r>
       <r>  -17.5957    1.0000 </r>
       <r>  -17.5695    1.0000 </r>
       <r>  -16.6737    1.0000 </r>
       <r>  -15.2639    1.0000 </r>
       <r>  -15.2409    1.0000 </r>
       <r>  -14.6332    1.0000 </r>
       <r>  -13.7310    1.0000 </r>
       <r>  -12.8173    1.0000 </r>
       <r>  -11.8951    1.0000 </r>
       <r>  -11.6721    1.0000 </r>
       <r>  -11.3945    1.0000 </r>
       <r>  -10.0453    1.0000 </r>
       <r>   -9.9141    1.0000 </r>
       <r>   -9.9082    1.0000 </r>
       <r>   -9.7139    1.0000 </r>
       <r>   -9.6408    1.0000 </r>
       <r>   -9.2779    1.0000 </r>
       <r>   -9.2697    1.0000 </r>
       <r>   -9.0370    1.0000 </r>
       <r>   -8.6076    1.0000 </r>
       <r>   -8.2686    1.0000 </r>
       <r>   -7.5653    1.0000 </r>
       <r>   -7.3565    1.0000 </r>
       <r>   -7.1603    1.0000 </r>
       <r>   -6.5686    1.0000 </r>
       <r>   -6.5269    1.0000 </r>
       <r>   -5.5826    1.0000 </r>
       <r>   -5.3771    1.0000 </r>
       <r>   -5.0712    1.0000 </r>
       <r>   -4.4389    1.0000 </r>
       <r>   -1.2873    0.0000 </r>
       <r>   -0.7010    0.0000 </r>
       <r>   -0.4296    0.0000 </r>
       <r>   -0.2961    0.0000 </r>
       <r>    1.0283    0.0000 </r>
       <r>    1.2269    0.0000 </r>
       <r>    1.8268    0.0000 </r>
       <r>    2.0447    0.0000 </r>
       <r>    2.1567    0.0000 </r>
       <r>    2.4111    0.0000 </r>
      </set>
      <set comment="kpoint 17">
       <r>  -21.8818    1.0000 </r>
       <r>  -21.1383    1.0000 </r>
       <r>  -20.7684    1.0000 </r>
       <r>  -19.6742    1.0000 </r>
       <r>  -18.9584    1.0000 </r>
       <r>  -17.9173    1.0000 </r>
       <r>  -17.5940    1.0000 </r>
       <r>  -17.5714    1.0000 </r>
       <r>  -16.6718    1.0000 </r>
       <r>  -15.2641    1.0000 </r>
       <r>  -15.2457    1.0000 </r>
       <r>  -14.6297    1.0000 </r>
       <r>  -13.7264    1.0000 </r>
       <r>  -12.8217    1.0000 </r>
       <r>  -11.8998    1.0000 </r>
       <r>  -11.6755    1.0000 </r>
       <r>  -11.3902    1.0000 </r>
       <r>  -10.0403    1.0000 </r>
       <r>   -9.9141    1.0000 </r>
       <r>   -9.9046    1.0000 </r>
       <r>   -9.7178    1.0000 </r>
       <r>   -9.6379    1.0000 </r>
       <r>   -9.2778    1.0000 </r>
       <r>   -9.2713    1.0000 </r>
       <r>   -9.0368    1.0000 </r>
       <r>   -8.6078    1.0000 </r>
       <r>   -8.2730    1.0000 </r>
       <r>   -7.5635    1.0000 </r>
       <r>   -7.3560    1.0000 </r>
       <r>   -7.1546    1.0000 </r>
       <r>   -6.5669    1.0000 </r>
       <r>   -6.5328    1.0000 </r>
       <r>   -5.5858    1.0000 </r>
       <r>   -5.3772    1.0000 </r>
       <r>   -5.0741    1.0000 </r>
       <r>   -4.4341    1.0000 </r>
       <r>   -1.2947    0.0000 </r>
       <r>   -0.7002    0.0000 </r>
       <r>   -0.4251    0.0000 </r>
       <r>   -0.2897    0.0000 </r>
       <r>    1.0283    0.0000 </r>
       <r>    1.2221    0.0000 </r>
       <r>    1.8268    0.0000 </r>
       <r>    2.0447    0.0000 </r>
       <r>    2.1567    0.0000 </r>
       <r>    2.4096    0.0000 </r>
      </set>
      <set comment="kpoint 18">
       <r>  -21.8817    1.0000 </r>
       <r>  -21.1379    1.0000 </r>
       <r>  -20.7689    1.0000 </r>
       <r>  -19.6749    1.0000 </r>
       <r>  -18.9583    1.0000 </r>
       <r>  -17.9167    1.0000 </r>
       <r>  -17.5954    1.0000 </r>
       <r>  -17.5720    1.0000 </r>
       <r>  -16.6675    1.0000 </r>
       <r>  -15.2618    1.0000 </r>
       <r>  -15.2468    1.0000 </r>
       <r>  -14.6322    1.0000 </r>
       <r>  -13.7198    1.0000 </r>
       <r>  -12.8286    1.0000 </r>
       <r>  -11.9074    1.0000 </r>
       <r>  -11.6927    1.0000 </r>
       <r>  -11.3806    1.0000 </r>
       <r>  -10.0313    1.0000 </r>
       <r>   -9.9199    1.0000 </r>
       <r>   -9.9145    1.0000 </r>
       <r>   -9.7150    1.0000 </r>
       <r>   -9.6170    1.0000 </r>
       <r>   -9.2919    1.0000 </r>
       <r>   -9.2546    1.0000 </r>
       <r>   -9.0379    1.0000 </r>
       <r>   -8.6065    1.0000 </r>
       <r>   -8.2556    1.0000 </r>
       <r>   -7.5865    1.0000 </r>
       <r>   -7.3522    1.0000 </r>
       <r>   -7.1231    1.0000 </r>
       <r>   -6.5662    1.0000 </r>
       <r>   -6.5650    1.0000 </r>
       <r>   -5.5842    1.0000 </r>
       <r>   -5.3920    1.0000 </r>
       <r>   -5.0786    1.0000 </r>
       <r>   -4.4235    1.0000 </r>
       <r>   -1.3107    0.0000 </r>
       <r>   -0.6740    0.0000 </r>
       <r>   -0.4161    0.0000 </r>
       <r>   -0.2927    0.0000 </r>
       <r>    1.0282    0.0000 </r>
       <r>    1.2175    0.0000 </r>
       <r>    1.8268    0.0000 </r>
       <r>    2.0448    0.0000 </r>
       <r>    2.1567    0.0000 </r>
       <r>    2.5529    0.0000 </r>
      </set>
      <set comment="kpoint 19">
       <r>  -21.8818    1.0000 </r>
       <r>  -21.1379    1.0000 </r>
       <r>  -20.7689    1.0000 </r>
       <r>  -19.6746    1.0000 </r>
       <r>  -18.9576    1.0000 </r>
       <r>  -17.9166    1.0000 </r>
       <r>  -17.5955    1.0000 </r>
       <r>  -17.5710    1.0000 </r>
       <r>  -16.6739    1.0000 </r>
       <r>  -15.2533    1.0000 </r>
       <r>  -15.2405    1.0000 </r>
       <r>  -14.6424    1.0000 </r>
       <r>  -13.7358    1.0000 </r>
       <r>  -12.8134    1.0000 </r>
       <r>  -11.8899    1.0000 </r>
       <r>  -11.6796    1.0000 </r>
       <r>  -11.3954    1.0000 </r>
       <r>  -10.0504    1.0000 </r>
       <r>   -9.9262    1.0000 </r>
       <r>   -9.9142    1.0000 </r>
       <r>   -9.7016    1.0000 </r>
       <r>   -9.6329    1.0000 </r>
       <r>   -9.2862    1.0000 </r>
       <r>   -9.2559    1.0000 </r>
       <r>   -9.0381    1.0000 </r>
       <r>   -8.6061    1.0000 </r>
       <r>   -8.2478    1.0000 </r>
       <r>   -7.5861    1.0000 </r>
       <r>   -7.3547    1.0000 </r>
       <r>   -7.1492    1.0000 </r>
       <r>   -6.5707    1.0000 </r>
       <r>   -6.5387    1.0000 </r>
       <r>   -5.5749    1.0000 </r>
       <r>   -5.3875    1.0000 </r>
       <r>   -5.0694    1.0000 </r>
       <r>   -4.4407    1.0000 </r>
       <r>   -1.2845    0.0000 </r>
       <r>   -0.6821    0.0000 </r>
       <r>   -0.4348    0.0000 </r>
       <r>   -0.3099    0.0000 </r>
       <r>    1.0283    0.0000 </r>
       <r>    1.2334    0.0000 </r>
       <r>    1.8268    0.0000 </r>
       <r>    2.0446    0.0000 </r>
       <r>    2.1567    0.0000 </r>
       <r>    2.4038    0.0000 </r>
      </set>
      <set comment="kpoint 20">
       <r>  -21.5695    1.0000 </r>
       <r>  -21.5547    1.0000 </r>
       <r>  -20.8216    1.0000 </r>
       <r>  -19.7265    1.0000 </r>
       <r>  -18.3117    1.0000 </r>
       <r>  -18.3004    1.0000 </r>
       <r>  -17.3134    1.0000 </r>
       <r>  -17.3014    1.0000 </r>
       <r>  -16.9885    1.0000 </r>
       <r>  -15.9358    1.0000 </r>
       <r>  -15.0222    1.0000 </r>
       <r>  -14.9990    1.0000 </r>
       <r>  -13.2944    1.0000 </r>
       <r>  -13.2699    1.0000 </r>
       <r>  -11.3621    1.0000 </r>
       <r>  -10.9998    1.0000 </r>
       <r>  -10.9757    1.0000 </r>
       <r>  -10.5080    1.0000 </r>
       <r>  -10.4900    1.0000 </r>
       <r>   -9.9020    1.0000 </r>
       <r>   -9.6390    1.0000 </r>
       <r>   -9.5424    1.0000 </r>
       <r>   -9.5297    1.0000 </r>
       <r>   -9.3380    1.0000 </r>
       <r>   -8.6670    1.0000 </r>
       <r>   -8.4144    1.0000 </r>
       <r>   -8.1326    1.0000 </r>
       <r>   -8.1090    1.0000 </r>
       <r>   -7.4087    1.0000 </r>
       <r>   -7.0738    1.0000 </r>
       <r>   -7.0397    1.0000 </r>
       <r>   -5.8622    1.0000 </r>
       <r>   -5.8495    1.0000 </r>
       <r>   -5.0662    1.0000 </r>
       <r>   -5.0200    1.0000 </r>
       <r>   -5.0026    1.0000 </r>
       <r>   -1.0847    0.0000 </r>
       <r>   -0.8379    0.0000 </r>
       <r>   -0.8111    0.0000 </r>
       <r>    0.4013    0.0000 </r>
       <r>    0.4208    0.0000 </r>
       <r>    1.4632    0.0000 </r>
       <r>    1.4650    0.0000 </r>
       <r>    2.2668    0.0000 </r>
       <r>    2.2675    0.0000 </r>
       <r>    2.6035    0.0000 </r>
      </set>
      <set comment="kpoint 21">
       <r>  -21.5685    1.0000 </r>
       <r>  -21.5557    1.0000 </r>
       <r>  -20.8217    1.0000 </r>
       <r>  -19.7265    1.0000 </r>
       <r>  -18.3154    1.0000 </r>
       <r>  -18.2967    1.0000 </r>
       <r>  -17.3168    1.0000 </r>
       <r>  -17.2972    1.0000 </r>
       <r>  -16.9912    1.0000 </r>
       <r>  -15.9300    1.0000 </r>
       <r>  -15.0211    1.0000 </r>
       <r>  -15.0036    1.0000 </r>
       <r>  -13.2920    1.0000 </r>
       <r>  -13.2729    1.0000 </r>
       <r>  -11.3675    1.0000 </r>
       <r>  -10.9968    1.0000 </r>
       <r>  -10.9787    1.0000 </r>
       <r>  -10.5051    1.0000 </r>
       <r>  -10.4890    1.0000 </r>
       <r>   -9.8953    1.0000 </r>
       <r>   -9.6459    1.0000 </r>
       <r>   -9.5415    1.0000 </r>
       <r>   -9.5310    1.0000 </r>
       <r>   -9.3430    1.0000 </r>
       <r>   -8.6666    1.0000 </r>
       <r>   -8.4073    1.0000 </r>
       <r>   -8.1276    1.0000 </r>
       <r>   -8.0997    1.0000 </r>
       <r>   -7.4077    1.0000 </r>
       <r>   -7.0804    1.0000 </r>
       <r>   -7.0483    1.0000 </r>
       <r>   -5.8644    1.0000 </r>
       <r>   -5.8477    1.0000 </r>
       <r>   -5.0709    1.0000 </r>
       <r>   -5.0191    1.0000 </r>
       <r>   -5.0011    1.0000 </r>
       <r>   -1.0767    0.0000 </r>
       <r>   -0.8381    0.0000 </r>
       <r>   -0.8154    0.0000 </r>
       <r>    0.4016    0.0000 </r>
       <r>    0.4213    0.0000 </r>
       <r>    1.4633    0.0000 </r>
       <r>    1.4648    0.0000 </r>
       <r>    2.2668    0.0000 </r>
       <r>    2.2674    0.0000 </r>
       <r>    2.4846    0.0000 </r>
      </set>
      <set comment="kpoint 22">
       <r>  -21.5667    1.0000 </r>
       <r>  -21.5579    1.0000 </r>
       <r>  -20.8212    1.0000 </r>
       <r>  -19.7259    1.0000 </r>
       <r>  -18.3167    1.0000 </r>
       <r>  -18.2960    1.0000 </r>
       <r>  -17.3191    1.0000 </r>
       <r>  -17.2979    1.0000 </r>
       <r>  -16.9810    1.0000 </r>
       <r>  -15.9515    1.0000 </r>
       <r>  -15.0125    1.0000 </r>
       <r>  -14.9994    1.0000 </r>
       <r>  -13.2874    1.0000 </r>
       <r>  -13.2756    1.0000 </r>
       <r>  -11.3459    1.0000 </r>
       <r>  -10.9937    1.0000 </r>
       <r>  -10.9837    1.0000 </r>
       <r>  -10.5070    1.0000 </r>
       <r>  -10.5008    1.0000 </r>
       <r>   -9.9196    1.0000 </r>
       <r>   -9.6198    1.0000 </r>
       <r>   -9.5396    1.0000 </r>
       <r>   -9.5316    1.0000 </r>
       <r>   -9.3258    1.0000 </r>
       <r>   -8.6682    1.0000 </r>
       <r>   -8.4360    1.0000 </r>
       <r>   -8.1529    1.0000 </r>
       <r>   -8.1239    1.0000 </r>
       <r>   -7.4111    1.0000 </r>
       <r>   -7.0586    1.0000 </r>
       <r>   -7.0155    1.0000 </r>
       <r>   -5.8643    1.0000 </r>
       <r>   -5.8467    1.0000 </r>
       <r>   -5.0535    1.0000 </r>
       <r>   -5.0230    1.0000 </r>
       <r>   -5.0063    1.0000 </r>
       <r>   -1.1068    0.0000 </r>
       <r>   -0.8229    0.0000 </r>
       <r>   -0.8132    0.0000 </r>
       <r>    0.4032    0.0000 </r>
       <r>    0.4162    0.0000 </r>
       <r>    1.4636    0.0000 </r>
       <r>    1.4647    0.0000 </r>
       <r>    2.2670    0.0000 </r>
       <r>    2.2675    0.0000 </r>
       <r>    2.4884    0.0000 </r>
      </set>
      <set comment="kpoint 23">
       <r>  -21.6154    1.0000 </r>
       <r>  -21.2483    1.0000 </r>
       <r>  -21.2392    1.0000 </r>
       <r>  -19.0704    1.0000 </r>
       <r>  -19.0505    1.0000 </r>
       <r>  -18.3553    1.0000 </r>
       <r>  -17.0937    1.0000 </r>
       <r>  -17.0876    1.0000 </r>
       <r>  -16.7055    1.0000 </r>
       <r>  -15.6901    1.0000 </r>
       <r>  -15.6164    1.0000 </r>
       <r>  -15.6010    1.0000 </r>
       <r>  -12.9077    1.0000 </r>
       <r>  -12.2746    1.0000 </r>
       <r>  -12.2681    1.0000 </r>
       <r>  -11.3659    1.0000 </r>
       <r>  -10.5543    1.0000 </r>
       <r>  -10.5483    1.0000 </r>
       <r>  -10.5269    1.0000 </r>
       <r>   -9.8293    1.0000 </r>
       <r>   -9.8197    1.0000 </r>
       <r>   -9.5992    1.0000 </r>
       <r>   -9.1648    1.0000 </r>
       <r>   -9.1569    1.0000 </r>
       <r>   -8.8412    1.0000 </r>
       <r>   -8.8088    1.0000 </r>
       <r>   -7.8653    1.0000 </r>
       <r>   -7.7006    1.0000 </r>
       <r>   -7.6639    1.0000 </r>
       <r>   -7.1003    1.0000 </r>
       <r>   -6.6723    1.0000 </r>
       <r>   -6.6537    1.0000 </r>
       <r>   -5.8970    1.0000 </r>
       <r>   -5.0143    1.0000 </r>
       <r>   -5.0067    1.0000 </r>
       <r>   -4.6623    1.0000 </r>
       <r>   -1.2443    0.0000 </r>
       <r>   -1.0218    0.0000 </r>
       <r>   -1.0096    0.0000 </r>
       <r>    0.5371    0.0000 </r>
       <r>    1.3916    0.0000 </r>
       <r>    1.4667    0.0000 </r>
       <r>    1.4873    0.0000 </r>
       <r>    1.8996    0.0000 </r>
       <r>    1.9007    0.0000 </r>
       <r>    2.1939    0.0000 </r>
      </set>
      <set comment="kpoint 24">
       <r>  -21.6155    1.0000 </r>
       <r>  -21.2513    1.0000 </r>
       <r>  -21.2362    1.0000 </r>
       <r>  -19.0656    1.0000 </r>
       <r>  -19.0548    1.0000 </r>
       <r>  -18.3557    1.0000 </r>
       <r>  -17.0957    1.0000 </r>
       <r>  -17.0817    1.0000 </r>
       <r>  -16.7128    1.0000 </r>
       <r>  -15.6736    1.0000 </r>
       <r>  -15.6248    1.0000 </r>
       <r>  -15.6059    1.0000 </r>
       <r>  -12.9211    1.0000 </r>
       <r>  -12.2699    1.0000 </r>
       <r>  -12.2527    1.0000 </r>
       <r>  -11.3511    1.0000 </r>
       <r>  -10.5715    1.0000 </r>
       <r>  -10.5572    1.0000 </r>
       <r>  -10.5348    1.0000 </r>
       <r>   -9.8268    1.0000 </r>
       <r>   -9.8099    1.0000 </r>
       <r>   -9.5987    1.0000 </r>
       <r>   -9.1674    1.0000 </r>
       <r>   -9.1548    1.0000 </r>
       <r>   -8.8396    1.0000 </r>
       <r>   -8.8025    1.0000 </r>
       <r>   -7.8887    1.0000 </r>
       <r>   -7.7068    1.0000 </r>
       <r>   -7.6656    1.0000 </r>
       <r>   -7.0758    1.0000 </r>
       <r>   -6.6711    1.0000 </r>
       <r>   -6.6596    1.0000 </r>
       <r>   -5.8924    1.0000 </r>
       <r>   -5.0124    1.0000 </r>
       <r>   -4.9951    1.0000 </r>
       <r>   -4.6756    1.0000 </r>
       <r>   -1.2235    0.0000 </r>
       <r>   -1.0406    0.0000 </r>
       <r>   -1.0130    0.0000 </r>
       <r>    0.5259    0.0000 </r>
       <r>    1.3917    0.0000 </r>
       <r>    1.4755    0.0000 </r>
       <r>    1.4925    0.0000 </r>
       <r>    1.8992    0.0000 </r>
       <r>    1.9010    0.0000 </r>
       <r>    2.1940    0.0000 </r>
      </set>
      <set comment="kpoint 25">
       <r>  -21.6156    1.0000 </r>
       <r>  -21.2502    1.0000 </r>
       <r>  -21.2372    1.0000 </r>
       <r>  -19.0691    1.0000 </r>
       <r>  -19.0510    1.0000 </r>
       <r>  -18.3558    1.0000 </r>
       <r>  -17.0949    1.0000 </r>
       <r>  -17.0807    1.0000 </r>
       <r>  -16.7158    1.0000 </r>
       <r>  -15.6683    1.0000 </r>
       <r>  -15.6270    1.0000 </r>
       <r>  -15.6079    1.0000 </r>
       <r>  -12.9257    1.0000 </r>
       <r>  -12.2664    1.0000 </r>
       <r>  -12.2491    1.0000 </r>
       <r>  -11.3457    1.0000 </r>
       <r>  -10.5715    1.0000 </r>
       <r>  -10.5599    1.0000 </r>
       <r>  -10.5445    1.0000 </r>
       <r>   -9.8245    1.0000 </r>
       <r>   -9.8076    1.0000 </r>
       <r>   -9.5985    1.0000 </r>
       <r>   -9.1664    1.0000 </r>
       <r>   -9.1559    1.0000 </r>
       <r>   -8.8369    1.0000 </r>
       <r>   -8.8025    1.0000 </r>
       <r>   -7.8962    1.0000 </r>
       <r>   -7.7059    1.0000 </r>
       <r>   -7.6702    1.0000 </r>
       <r>   -7.0669    1.0000 </r>
       <r>   -6.6744    1.0000 </r>
       <r>   -6.6581    1.0000 </r>
       <r>   -5.8909    1.0000 </r>
       <r>   -5.0094    1.0000 </r>
       <r>   -4.9930    1.0000 </r>
       <r>   -4.6807    1.0000 </r>
       <r>   -1.2158    0.0000 </r>
       <r>   -1.0427    0.0000 </r>
       <r>   -1.0193    0.0000 </r>
       <r>    0.5219    0.0000 </r>
       <r>    1.3917    0.0000 </r>
       <r>    1.4763    0.0000 </r>
       <r>    1.4969    0.0000 </r>
       <r>    1.8993    0.0000 </r>
       <r>    1.9008    0.0000 </r>
       <r>    2.1940    0.0000 </r>
      </set>
     </set>
    </set>
   </array>
  </eigenvalues>
  <separator name="orbital magnetization" >
   <v name="MAGDIPOLOUT">      0.00000000      0.00000000      0.00000000</v>
  </separator>
  <dos>
   <i name="efermi">     -2.75525291 </i>
   <total>
    <array>
     <dimension dim="1">gridpoints</dimension>
     <dimension dim="2">spin</dimension>
     <field>energy</field>
     <field>total</field>
     <field>integrated</field>
     <set>
      <set comment="spin 1">
       <r>   -23.5114     0.0000     0.0000 </r>
       <r>   -23.4193     0.0000     0.0000 </r>
       <r>   -23.3273     0.0000     0.0000 </r>
       <r>   -23.2352     0.0000     0.0000 </r>
       <r>   -23.1431     0.0000     0.0000 </r>
       <r>   -23.0511     0.0000     0.0000 </r>
       <r>   -22.9590     0.0000     0.0000 </r>
       <r>   -22.8670     0.0000     0.0000 </r>
       <r>   -22.7749     0.0000     0.0000 </r>
       <r>   -22.6828     0.0000     0.0000 </r>
       <r>   -22.5908     0.0000     0.0000 </r>
       <r>   -22.4987     0.0000     0.0000 </r>
       <r>   -22.4067     0.0000     0.0000 </r>
       <r>   -22.3146     0.0236     0.0022 </r>
       <r>   -22.2225     1.1018     0.1036 </r>
       <r>   -22.1305     2.3659     0.3214 </r>
       <r>   -22.0384     3.5656     0.6497 </r>
       <r>   -21.9464     1.5378     0.7912 </r>
       <r>   -21.8543     4.0194     1.1613 </r>
       <r>   -21.7622     2.8376     1.4225 </r>
       <r>   -21.6702     1.1180     1.5254 </r>
       <r>   -21.5781     3.8563     1.8804 </r>
       <r>   -21.4861     3.8929     2.2388 </r>
       <r>   -21.3940     1.6563     2.3913 </r>
       <r>   -21.3019     1.3439     2.5150 </r>
       <r>   -21.2099     4.2383     2.9052 </r>
       <r>   -21.1178     4.6177     3.3303 </r>
       <r>   -21.0258     1.5137     3.4696 </r>
       <r>   -20.9337     1.1225     3.5730 </r>
       <r>   -20.8416     2.3744     3.7916 </r>
       <r>   -20.7496     5.5235     4.3001 </r>
       <r>   -20.6575     2.1361     4.4967 </r>
       <r>   -20.5655     4.2594     4.8888 </r>
       <r>   -20.4734     0.5427     4.9388 </r>
       <r>   -20.3813     0.5370     4.9882 </r>
       <r>   -20.2893     5.1560     5.4629 </r>
       <r>   -20.1972     4.6720     5.8930 </r>
       <r>   -20.1051     2.8984     6.1598 </r>
       <r>   -20.0131     1.1653     6.2671 </r>
       <r>   -19.9210     3.9839     6.6339 </r>
       <r>   -19.8290     0.2133     6.6535 </r>
       <r>   -19.7369     1.3498     6.7778 </r>
       <r>   -19.6448     7.5838     7.4759 </r>
       <r>   -19.5528     2.6515     7.7200 </r>
       <r>   -19.4607     4.0903     8.0966 </r>
       <r>   -19.3687     0.2891     8.1232 </r>
       <r>   -19.2766     1.8405     8.2927 </r>
       <r>   -19.1845     3.3922     8.6049 </r>
       <r>   -19.0925     1.0768     8.7041 </r>
       <r>   -19.0004     4.6831     9.1352 </r>
       <r>   -18.9084     5.7920     9.6684 </r>
       <r>   -18.8163     2.0555     9.8577 </r>
       <r>   -18.7242     4.0624    10.2316 </r>
       <r>   -18.6322     1.0291    10.3264 </r>
       <r>   -18.5401     0.0493    10.3309 </r>
       <r>   -18.4481     3.0259    10.6095 </r>
       <r>   -18.3560     4.0041    10.9781 </r>
       <r>   -18.2639     5.5640    11.4903 </r>
       <r>   -18.1719     2.5458    11.7247 </r>
       <r>   -18.0798     4.1966    12.1110 </r>
       <r>   -17.9878     1.9725    12.2926 </r>
       <r>   -17.8957     3.7846    12.6410 </r>
       <r>   -17.8036     1.4571    12.7752 </r>
       <r>   -17.7116     0.0064    12.7758 </r>
       <r>   -17.6195     1.7562    12.9374 </r>
       <r>   -17.5275     8.7047    13.7388 </r>
       <r>   -17.4354     4.9577    14.1952 </r>
       <r>   -17.3433     1.4140    14.3254 </r>
       <r>   -17.2513     4.8163    14.7688 </r>
       <r>   -17.1592     2.3575    14.9858 </r>
       <r>   -17.0672     3.8440    15.3397 </r>
       <r>   -16.9751     3.0807    15.6233 </r>
       <r>   -16.8830     0.9883    15.7143 </r>
       <r>   -16.7910     1.5574    15.8577 </r>
       <r>   -16.6989     8.7000    16.6586 </r>
       <r>   -16.6068     5.5127    17.1661 </r>
       <r>   -16.5148     0.1910    17.1837 </r>
       <r>   -16.4227     0.0000    17.1837 </r>
       <r>   -16.3307     0.0000    17.1837 </r>
       <r>   -16.2386     0.0413    17.1875 </r>
       <r>   -16.1465     1.7260    17.3464 </r>
       <r>   -16.0545     1.1670    17.4538 </r>
       <r>   -15.9624     4.7725    17.8932 </r>
       <r>   -15.8704     2.8545    18.1560 </r>
       <r>   -15.7783     0.5753    18.2089 </r>
       <r>   -15.6862     3.2332    18.5066 </r>
       <r>   -15.5942     5.3064    18.9951 </r>
       <r>   -15.5021     1.5993    19.1423 </r>
       <r>   -15.4101     0.0635    19.1482 </r>
       <r>   -15.3180     1.6570    19.3007 </r>
       <r>   -15.2259     9.9073    20.2128 </r>
       <r>   -15.1339     3.4436    20.5298 </r>
       <r>   -15.0418     1.0215    20.6238 </r>
       <r>   -14.9498     4.8728    21.0724 </r>
       <r>   -14.8577     4.4270    21.4800 </r>
       <r>   -14.7656     1.3135    21.6009 </r>
       <r>   -14.6736     2.8356    21.8619 </r>
       <r>   -14.5815     8.4915    22.6437 </r>
       <r>   -14.4895     0.9882    22.7346 </r>
       <r>   -14.3974     0.0984    22.7437 </r>
       <r>   -14.3053     3.7603    23.0899 </r>
       <r>   -14.2133     4.1655    23.4734 </r>
       <r>   -14.1212     4.4311    23.8813 </r>
       <r>   -14.0292     0.9218    23.9661 </r>
       <r>   -13.9371     3.3776    24.2771 </r>
       <r>   -13.8450     1.8617    24.4485 </r>
       <r>   -13.7530     1.2724    24.5656 </r>
       <r>   -13.6609     3.9852    24.9325 </r>
       <r>   -13.5689     2.3161    25.1457 </r>
       <r>   -13.4768     4.3262    25.5440 </r>
       <r>   -13.3847     1.4195    25.6747 </r>
       <r>   -13.2927     2.4558    25.9007 </r>
       <r>   -13.2006     3.6638    26.2380 </r>
       <r>   -13.1086     0.0751    26.2449 </r>
       <r>   -13.0165     0.8542    26.3236 </r>
       <r>   -12.9244     9.3257    27.1821 </r>
       <r>   -12.8324     5.1041    27.6520 </r>
       <r>   -12.7403     3.2728    27.9533 </r>
       <r>   -12.6482     0.3712    27.9875 </r>
       <r>   -12.5562     2.1241    28.1830 </r>
       <r>   -12.4641     0.2584    28.2068 </r>
       <r>   -12.3721     1.5918    28.3533 </r>
       <r>   -12.2800     7.9281    29.0832 </r>
       <r>   -12.1879     8.6990    29.8840 </r>
       <r>   -12.0959     2.9934    30.1596 </r>
       <r>   -12.0038     0.0495    30.1642 </r>
       <r>   -11.9118     1.9224    30.3412 </r>
       <r>   -11.8197     3.3658    30.6510 </r>
       <r>   -11.7276     3.6895    30.9907 </r>
       <r>   -11.6356     6.4437    31.5839 </r>
       <r>   -11.5435     0.5295    31.6326 </r>
       <r>   -11.4515     0.2381    31.6545 </r>
       <r>   -11.3594     6.4812    32.2512 </r>
       <r>   -11.2673     6.0568    32.8088 </r>
       <r>   -11.1753     3.3595    33.1181 </r>
       <r>   -11.0832     5.5582    33.6298 </r>
       <r>   -10.9912     4.7198    34.0643 </r>
       <r>   -10.8991     2.8093    34.3229 </r>
       <r>   -10.8070     0.0394    34.3265 </r>
       <r>   -10.7150     0.0036    34.3269 </r>
       <r>   -10.6229     1.5544    34.4700 </r>
       <r>   -10.5309    10.9625    35.4792 </r>
       <r>   -10.4388    10.6078    36.4557 </r>
       <r>   -10.3467     2.9024    36.7229 </r>
       <r>   -10.2547     5.9081    37.2668 </r>
       <r>   -10.1626     2.0668    37.4571 </r>
       <r>   -10.0706     4.3226    37.8550 </r>
       <r>    -9.9785     4.9421    38.3100 </r>
       <r>    -9.8864    10.8288    39.3069 </r>
       <r>    -9.7944     9.9882    40.2264 </r>
       <r>    -9.7023     6.2388    40.8008 </r>
       <r>    -9.6103     8.7356    41.6050 </r>
       <r>    -9.5182     8.8987    42.4242 </r>
       <r>    -9.4261     5.4755    42.9283 </r>
       <r>    -9.3341     3.8069    43.2788 </r>
       <r>    -9.2420    10.3729    44.2337 </r>
       <r>    -9.1499    11.9639    45.3351 </r>
       <r>    -9.0579    14.8572    46.7029 </r>
       <r>    -8.9658     6.8386    47.3324 </r>
       <r>    -8.8738     3.1513    47.6225 </r>
       <r>    -8.7817    12.2769    48.7528 </r>
       <r>    -8.6896     6.9175    49.3896 </r>
       <r>    -8.5976     7.4408    50.0746 </r>
       <r>    -8.5055     7.0120    50.7201 </r>
       <r>    -8.4135     8.1087    51.4666 </r>
       <r>    -8.3214     3.3521    51.7752 </r>
       <r>    -8.2293     4.0054    52.1440 </r>
       <r>    -8.1373     5.5996    52.6594 </r>
       <r>    -8.0452    13.6810    53.9189 </r>
       <r>    -7.9532     5.3383    54.4104 </r>
       <r>    -7.8611     4.9503    54.8661 </r>
       <r>    -7.7690     1.2169    54.9781 </r>
       <r>    -7.6770     8.3532    55.7471 </r>
       <r>    -7.5849     7.0552    56.3966 </r>
       <r>    -7.4929     5.1206    56.8680 </r>
       <r>    -7.4008     2.9766    57.1421 </r>
       <r>    -7.3087     7.3239    57.8163 </r>
       <r>    -7.2167     2.3227    58.0301 </r>
       <r>    -7.1246     9.9897    58.9498 </r>
       <r>    -7.0326     7.6989    59.6586 </r>
       <r>    -6.9405     3.5691    59.9871 </r>
       <r>    -6.8484     3.5840    60.3171 </r>
       <r>    -6.7564     0.1503    60.3309 </r>
       <r>    -6.6643     4.3332    60.7298 </r>
       <r>    -6.5723    10.5319    61.6994 </r>
       <r>    -6.4802     8.8189    62.5113 </r>
       <r>    -6.3881     4.1228    62.8908 </r>
       <r>    -6.2961     4.0453    63.2633 </r>
       <r>    -6.2040     1.7711    63.4263 </r>
       <r>    -6.1120     4.9366    63.8808 </r>
       <r>    -6.0199     4.8826    64.3303 </r>
       <r>    -5.9278     2.8087    64.5888 </r>
       <r>    -5.8358     7.9349    65.3193 </r>
       <r>    -5.7437     7.1437    65.9770 </r>
       <r>    -5.6517     3.4625    66.2957 </r>
       <r>    -5.5596     3.7839    66.6441 </r>
       <r>    -5.4675     1.4830    66.7806 </r>
       <r>    -5.3755     3.1943    67.0747 </r>
       <r>    -5.2834     2.0829    67.2664 </r>
       <r>    -5.1913     1.5259    67.4069 </r>
       <r>    -5.0993     3.2683    67.7078 </r>
       <r>    -5.0072    15.5977    69.1437 </r>
       <r>    -4.9152     6.1408    69.7090 </r>
       <r>    -4.8231     0.0570    69.7143 </r>
       <r>    -4.7310     0.1431    69.7275 </r>
       <r>    -4.6390     2.0522    69.9164 </r>
       <r>    -4.5469     0.4681    69.9595 </r>
       <r>    -4.4549     1.4339    70.0915 </r>
       <r>    -4.3628     3.9500    70.4551 </r>
       <r>    -4.2707     5.0536    70.9204 </r>
       <r>    -4.1787     2.8229    71.1802 </r>
       <r>    -4.0866     0.0373    71.1837 </r>
       <r>    -3.9946     0.0111    71.1847 </r>
       <r>    -3.9025     1.2267    71.2976 </r>
       <r>    -3.8104     1.4036    71.4268 </r>
       <r>    -3.7184     0.0188    71.4286 </r>
       <r>    -3.6263     0.0151    71.4300 </r>
       <r>    -3.5343     2.2010    71.6326 </r>
       <r>    -3.4422     3.0532    71.9137 </r>
       <r>    -3.3501     0.0511    71.9184 </r>
       <r>    -3.2581     0.0000    71.9184 </r>
       <r>    -3.1660     0.0000    71.9184 </r>
       <r>    -3.0740     0.0000    71.9184 </r>
       <r>    -2.9819     0.0000    71.9184 </r>
       <r>    -2.8898     0.0002    71.9184 </r>
       <r>    -2.7978     0.2240    71.9390 </r>
       <r>    -2.7057     1.3872    72.0667 </r>
       <r>    -2.6137     0.1619    72.0816 </r>
       <r>    -2.5216     0.0001    72.0816 </r>
       <r>    -2.4295     0.0000    72.0816 </r>
       <r>    -2.3375     0.0000    72.0816 </r>
       <r>    -2.2454     0.0000    72.0816 </r>
       <r>    -2.1534     0.0001    72.0816 </r>
       <r>    -2.0613     0.3137    72.1105 </r>
       <r>    -1.9692     4.1288    72.4906 </r>
       <r>    -1.8772     0.8766    72.5713 </r>
       <r>    -1.7851     0.0586    72.5767 </r>
       <r>    -1.6930     1.7539    72.7382 </r>
       <r>    -1.6010     0.8451    72.8160 </r>
       <r>    -1.5089     0.0037    72.8163 </r>
       <r>    -1.4169     0.0037    72.8167 </r>
       <r>    -1.3248     1.9853    72.9994 </r>
       <r>    -1.2327    11.3398    74.0434 </r>
       <r>    -1.1407     2.8431    74.3051 </r>
       <r>    -1.0486     3.5152    74.6287 </r>
       <r>    -0.9566     5.7765    75.1605 </r>
       <r>    -0.8645     1.8367    75.3296 </r>
       <r>    -0.7724     4.2169    75.7178 </r>
       <r>    -0.6804     3.3704    76.0281 </r>
       <r>    -0.5883     4.7835    76.4685 </r>
       <r>    -0.4963     2.9818    76.7430 </r>
       <r>    -0.4042     3.7502    77.0882 </r>
       <r>    -0.3121     3.3635    77.3979 </r>
       <r>    -0.2201     5.1704    77.8739 </r>
       <r>    -0.1280     0.9234    77.9589 </r>
       <r>    -0.0360     0.0039    77.9592 </r>
       <r>     0.0561     0.5527    78.0101 </r>
       <r>     0.1482     4.2184    78.3985 </r>
       <r>     0.2402     1.5363    78.5399 </r>
       <r>     0.3323     4.1312    78.9202 </r>
       <r>     0.4243     3.6413    79.2554 </r>
       <r>     0.5164     3.1039    79.5412 </r>
       <r>     0.6085     3.6438    79.8766 </r>
       <r>     0.7005     1.3334    79.9994 </r>
       <r>     0.7926     5.8476    80.5377 </r>
       <r>     0.8846     5.9007    81.0809 </r>
       <r>     0.9767     1.4952    81.2186 </r>
       <r>     1.0688     4.2757    81.6122 </r>
       <r>     1.1608     1.8298    81.7807 </r>
       <r>     1.2529     5.6667    82.3023 </r>
       <r>     1.3449     2.0988    82.4956 </r>
       <r>     1.4370     6.9603    83.1363 </r>
       <r>     1.5291    13.9984    84.4250 </r>
       <r>     1.6211     4.5069    84.8399 </r>
       <r>     1.7132     4.6621    85.2691 </r>
       <r>     1.8052     3.3561    85.5781 </r>
       <r>     1.8973     8.8167    86.3898 </r>
       <r>     1.9894     8.8965    87.2088 </r>
       <r>     2.0814     9.1996    88.0557 </r>
       <r>     2.1735     6.9244    88.6932 </r>
       <r>     2.2656     6.9087    89.3292 </r>
       <r>     2.3576     7.2618    89.9977 </r>
       <r>     2.4497     5.1034    90.4675 </r>
       <r>     2.5417     4.3542    90.8684 </r>
       <r>     2.6338     2.9130    91.1365 </r>
       <r>     2.7259     2.1783    91.3371 </r>
       <r>     2.8179     4.5703    91.7578 </r>
       <r>     2.9100     2.5011    91.9881 </r>
       <r>     3.0020     0.1296    92.0000 </r>
       <r>     3.0941     0.0000    92.0000 </r>
       <r>     3.1862     0.0000    92.0000 </r>
       <r>     3.2782     0.0000    92.0000 </r>
       <r>     3.3703     0.0000    92.0000 </r>
       <r>     3.4623     0.0000    92.0000 </r>
       <r>     3.5544     0.0000    92.0000 </r>
       <r>     3.6465     0.0000    92.0000 </r>
       <r>     3.7385     0.0000    92.0000 </r>
       <r>     3.8306     0.0000    92.0000 </r>
       <r>     3.9226     0.0000    92.0000 </r>
       <r>     4.0147     0.0000    92.0000 </r>
       <r>     4.1068     0.0000    92.0000 </r>
      </set>
     </set>
    </array>
   </total>
  </dos>
 </calculation>
 <structure name="finalpos" >
  <crystal>
   <varray name="basis" >
    <v>       7.40170591       0.00000000       0.00000000 </v>
    <v>      -3.70085295       6.41006527       0.00000000 </v>
    <v>       0.00000000       0.00000000      20.00000000 </v>
   </varray>
   <i name="volume">    948.90835877 </i>
   <varray name="rec_basis" >
    <v>       0.13510399       0.07800233       0.00000000 </v>
    <v>       0.00000000       0.15600465       0.00000000 </v>
    <v>       0.00000000       0.00000000       0.05000000 </v>
   </varray>
  </crystal>
  <varray name="positions" >
   <v>       0.99864896       0.00000000       0.50000000 </v>
   <v>       0.33333333       0.00000000       0.50000000 </v>
   <v>       0.66666667       0.00000000       0.50000000 </v>
   <v>       0.00000000       0.33333333       0.50000000 </v>
   <v>       0.33333333       0.33333333       0.50000000 </v>
   <v>       0.66666667       0.33333333       0.50000000 </v>
   <v>       0.00000000       0.66666667       0.50000000 </v>
   <v>       0.33333333       0.66666667       0.50000000 </v>
   <v>       0.66666667       0.66666667       0.50000000 </v>
   <v>       0.22144220       0.10955106       0.50000000 </v>
   <v>       0.55555556       0.11111111       0.50000000 </v>
   <v>       0.88888889       0.11111111       0.50000000 </v>
   <v>       0.22222222       0.44444444       0.50000000 </v>
   <v>       0.55555556       0.44444444       0.50000000 </v>
   <v>       0.88888889       0.44444444       0.50000000 </v>
   <v>       0.22222222       0.77777778       0.50000000 </v>
   <v>       0.55555556       0.77777778       0.50000000 </v>
   <v>       0.88888889       0.77777778       0.50000000 </v>
  </varray>
 </structure>
</modeling>
