<?xml version="1.0" encoding="ISO-8859-1"?>
<modeling>
 <generator>
  <i name="program" type="string">vasp </i>
  <i name="version" type="string">6.4.1  </i>
  <i name="subversion" type="string">05Apr23 (build Feb 12 2025 00:37:39) complex                          parallel </i>
  <i name="platform" type="string">LinuxIFC </i>
  <i name="date" type="string">2025 02 14 </i>
  <i name="time" type="string">06:33:24 </i>
 </generator>
 <incar>
  <i type="string" name="SYSTEM">SCF</i>
  <i type="int" name="ISTART">     0</i>
  <i type="int" name="ICHARG">     2</i>
  <i type="int" name="NELM">    60</i>
  <i type="int" name="NELMIN">     6</i>
  <i name="EDIFF">      0.00000100</i>
  <i name="EDIFFG">     -0.00000100</i>
  <i name="ENCUT">    600.00000000</i>
  <i type="string" name="LREAL">Auto</i>
  <i type="int" name="ISMEAR">     0</i>
  <i name="SIGMA">      0.05000000</i>
  <i type="logical" name="LWAVE"> F  </i>
  <i type="logical" name="LCHARG"> F  </i>
 </incar>
 <primitive_cell>
  <structure name="primitive_cell" >
   <crystal>
    <varray name="basis" >
     <v>       7.40170591       0.00000000       0.00000000 </v>
     <v>      -3.70085295       6.41006527       0.00000000 </v>
     <v>       0.00000000       0.00000000      20.00000000 </v>
    </varray>
    <i name="volume">    948.90835877 </i>
    <varray name="rec_basis" >
     <v>       0.13510399       0.07800233       0.00000000 </v>
     <v>       0.00000000       0.15600465       0.00000000 </v>
     <v>       0.00000000       0.00000000       0.05000000 </v>
    </varray>
   </crystal>
   <varray name="positions" >
    <v>       0.00135104       0.00000000       0.50000000 </v>
    <v>       0.33333333       0.00000000       0.50000000 </v>
    <v>       0.66666667       0.00000000       0.50000000 </v>
    <v>       1.00000000       0.33333333       0.50000000 </v>
    <v>       0.33333333       0.33333333       0.50000000 </v>
    <v>       0.66666667       0.33333333       0.50000000 </v>
    <v>       1.00000000       0.66666667       0.50000000 </v>
    <v>       0.33333333       0.66666667       0.50000000 </v>
    <v>       0.66666667       0.66666667       0.50000000 </v>
    <v>       0.22087118       0.11111111       0.50000000 </v>
    <v>       0.55555556       0.11111111       0.50000000 </v>
    <v>       0.88888889       0.11111111       0.50000000 </v>
    <v>       0.22222222       0.44444444       0.50000000 </v>
    <v>       0.55555556       0.44444444       0.50000000 </v>
    <v>       0.88888889       0.44444444       0.50000000 </v>
    <v>       0.22222222       0.77777778       0.50000000 </v>
    <v>       0.55555556       0.77777778       0.50000000 </v>
    <v>       0.88888889       0.77777778       0.50000000 </v>
   </varray>
  </structure>
  <varray name="primitive_index" >
   <v type="int" >        1 </v>
   <v type="int" >        2 </v>
   <v type="int" >        3 </v>
   <v type="int" >        4 </v>
   <v type="int" >        5 </v>
   <v type="int" >        6 </v>
   <v type="int" >        7 </v>
   <v type="int" >        8 </v>
   <v type="int" >        9 </v>
   <v type="int" >       10 </v>
   <v type="int" >       11 </v>
   <v type="int" >       12 </v>
   <v type="int" >       13 </v>
   <v type="int" >       14 </v>
   <v type="int" >       15 </v>
   <v type="int" >       16 </v>
   <v type="int" >       17 </v>
   <v type="int" >       18 </v>
  </varray>
 </primitive_cell>
 <kpoints>
  <generation param="Gamma">
   <v type="int" name="divisions">       7        7        1 </v>
   <v name="usershift">      0.00000000       0.00000000       0.00000000 </v>
   <v name="genvec1">      0.14285714       0.00000000       0.00000000 </v>
   <v name="genvec2">      0.00000000       0.14285714       0.00000000 </v>
   <v name="genvec3">      0.00000000       0.00000000       1.00000000 </v>
   <v name="shift">      0.00000000       0.00000000       0.00000000 </v>
  </generation>
  <varray name="kpointlist" >
   <v>       0.00000000       0.00000000       0.00000000 </v>
   <v>       0.14285714       0.00000000       0.00000000 </v>
   <v>       0.00000000       0.14285714       0.00000000 </v>
   <v>      -0.14285714       0.14285714       0.00000000 </v>
   <v>       0.28571429       0.00000000       0.00000000 </v>
   <v>       0.00000000       0.28571429       0.00000000 </v>
   <v>      -0.28571429       0.28571429       0.00000000 </v>
   <v>       0.42857143       0.00000000       0.00000000 </v>
   <v>       0.00000000       0.42857143       0.00000000 </v>
   <v>      -0.42857143       0.42857143       0.00000000 </v>
   <v>       0.14285714       0.14285714       0.00000000 </v>
   <v>      -0.14285714       0.28571429       0.00000000 </v>
   <v>      -0.28571429       0.14285714       0.00000000 </v>
   <v>       0.28571429       0.14285714       0.00000000 </v>
   <v>      -0.14285714       0.42857143       0.00000000 </v>
   <v>      -0.42857143       0.28571429       0.00000000 </v>
   <v>      -0.28571429       0.42857143       0.00000000 </v>
   <v>       0.14285714       0.28571429       0.00000000 </v>
   <v>       0.42857143      -0.14285714       0.00000000 </v>
   <v>       0.42857143       0.14285714       0.00000000 </v>
   <v>      -0.14285714      -0.42857143       0.00000000 </v>
   <v>       0.42857143       0.42857143       0.00000000 </v>
   <v>       0.28571429       0.28571429       0.00000000 </v>
   <v>      -0.28571429      -0.42857143       0.00000000 </v>
   <v>       0.42857143       0.28571429       0.00000000 </v>
  </varray>
  <varray name="weights" >
   <v>       0.02040816 </v>
   <v>       0.04081633 </v>
   <v>       0.04081633 </v>
   <v>       0.04081633 </v>
   <v>       0.04081633 </v>
   <v>       0.04081633 </v>
   <v>       0.04081633 </v>
   <v>       0.04081633 </v>
   <v>       0.04081633 </v>
   <v>       0.04081633 </v>
   <v>       0.04081633 </v>
   <v>       0.04081633 </v>
   <v>       0.04081633 </v>
   <v>       0.04081633 </v>
   <v>       0.04081633 </v>
   <v>       0.04081633 </v>
   <v>       0.04081633 </v>
   <v>       0.04081633 </v>
   <v>       0.04081633 </v>
   <v>       0.04081633 </v>
   <v>       0.04081633 </v>
   <v>       0.04081633 </v>
   <v>       0.04081633 </v>
   <v>       0.04081633 </v>
   <v>       0.04081633 </v>
  </varray>
 </kpoints>
 <parameters>
  <separator name="general" >
   <i type="string" name="SYSTEM">SCF</i>
   <i type="logical" name="LCOMPAT"> F  </i>
  </separator>
  <separator name="electronic" >
   <i type="string" name="PREC">normal</i>
   <i name="ENMAX">    600.00000000</i>
   <i name="ENAUG">    644.87300000</i>
   <i name="EDIFF">      0.00000100</i>
   <i type="int" name="IALGO">    38</i>
   <i type="int" name="IWAVPR">    10</i>
   <i type="int" name="NBANDS">    46</i>
   <i type="int" name="NBANDSLOW">    -1</i>
   <i type="int" name="NBANDSHIGH">    -1</i>
   <i name="NELECT">     72.00000000</i>
   <i type="int" name="TURBO">     0</i>
   <i type="int" name="IRESTART">     0</i>
   <i type="int" name="NREBOOT">     0</i>
   <i type="int" name="NMIN">     0</i>
   <i name="EREF">      0.00000000</i>
   <separator name="electronic smearing" >
    <i type="int" name="ISMEAR">     0</i>
    <i name="SIGMA">      0.05000000</i>
    <i name="KSPACING">      0.50000000</i>
    <i type="logical" name="KGAMMA"> T  </i>
    <i type="logical" name="KBLOWUP"> T  </i>
   </separator>
   <separator name="electronic projectors" >
    <i type="logical" name="LREAL"> T  </i>
    <v name="ROPT">     -0.00050000</v>
    <i type="int" name="LMAXPAW">  -100</i>
    <i type="int" name="LMAXMIX">     2</i>
    <i type="logical" name="NLSPLINE"> F  </i>
   </separator>
   <separator name="electronic startup" >
    <i type="int" name="ISTART">     0</i>
    <i type="int" name="ICHARG">     2</i>
    <i type="int" name="INIWAV">     1</i>
   </separator>
   <separator name="electronic spin" >
    <i type="int" name="ISPIN">     1</i>
    <i type="logical" name="LNONCOLLINEAR"> F  </i>
    <v name="MAGMOM">      1.00000000      1.00000000      1.00000000      1.00000000      1.00000000      1.00000000      1.00000000      1.00000000      1.00000000      1.00000000      1.00000000      1.00000000      1.00000000      1.00000000      1.00000000      1.00000000      1.00000000      1.00000000</v>
    <i name="NUPDOWN">     -1.00000000</i>
    <i type="logical" name="LSORBIT"> F  </i>
    <v name="SAXIS">      0.00000000      0.00000000      1.00000000</v>
    <i type="logical" name="LSPIRAL"> F  </i>
    <v name="QSPIRAL">      0.00000000      0.00000000      0.00000000</v>
    <i type="logical" name="LZEROZ"> F  </i>
   </separator>
   <separator name="electronic exchange-correlation" >
    <i type="logical" name="LASPH"> F  </i>
    <i type="logical" name="LMETAGGA"> F  </i>
   </separator>
   <separator name="electronic convergence" >
    <i type="int" name="NELM">    60</i>
    <i type="int" name="NELMDL">    -5</i>
    <i type="int" name="NELMIN">     6</i>
    <i name="ENINI">    600.00000000</i>
    <separator name="electronic convergence detail" >
     <i type="logical" name="LDIAG"> T  </i>
     <i type="logical" name="LSUBROT"> F  </i>
     <i name="WEIMIN">      0.00000000</i>
     <i name="EBREAK">      0.00000000</i>
     <i name="DEPER">      0.30000000</i>
     <i type="int" name="NRMM">     4</i>
     <i name="TIME">      0.40000000</i>
    </separator>
   </separator>
   <separator name="electronic mixer" >
    <i name="AMIX">      0.40000000</i>
    <i name="BMIX">      1.00000000</i>
    <i name="AMIN">      0.10000000</i>
    <i name="AMIX_MAG">      1.60000000</i>
    <i name="BMIX_MAG">      1.00000000</i>
    <separator name="electronic mixer details" >
     <i type="int" name="IMIX">     4</i>
     <i type="logical" name="MIXFIRST"> F  </i>
     <i type="int" name="MAXMIX">   -45</i>
     <i name="WC">    100.00000000</i>
     <i type="int" name="INIMIX">     1</i>
     <i type="int" name="MIXPRE">     1</i>
     <i type="int" name="MREMOVE">     5</i>
    </separator>
   </separator>
   <separator name="electronic dipolcorrection" >
    <i type="logical" name="LDIPOL"> F  </i>
    <i type="logical" name="LMONO"> F  </i>
    <i type="int" name="IDIPOL">     0</i>
    <i name="EPSILON">      1.00000000</i>
    <v name="DIPOL">   -100.00000000   -100.00000000   -100.00000000</v>
    <i name="EFIELD">      0.00000000</i>
   </separator>
  </separator>
  <separator name="grids" >
   <i type="int" name="NGX">    48</i>
   <i type="int" name="NGY">    48</i>
   <i type="int" name="NGZ">   120</i>
   <i type="int" name="NGXF">    96</i>
   <i type="int" name="NGYF">    96</i>
   <i type="int" name="NGZF">   240</i>
   <i type="logical" name="ADDGRID"> F  </i>
  </separator>
  <separator name="ionic" >
   <i type="int" name="NSW">     0</i>
   <i type="int" name="IBRION">    -1</i>
   <i type="int" name="MDALGO">     0</i>
   <i type="int" name="ISIF">     2</i>
   <i name="PSTRESS">      0.00000000</i>
   <i name="EDIFFG">     -0.00000100</i>
   <i type="int" name="NFREE">     0</i>
   <i name="POTIM">      0.50000000</i>
   <i name="SMASS">     -3.00000000</i>
   <i name="SCALEE">      1.00000000</i>
  </separator>
  <separator name="ionic md" >
   <i name="TEBEG">      0.00010000</i>
   <i name="TEEND">      0.00010000</i>
   <i type="int" name="NBLOCK">     1</i>
   <i type="int" name="KBLOCK">     1</i>
   <i type="int" name="NPACO">   256</i>
   <i name="APACO">     10.00000000</i>
  </separator>
  <separator name="symmetry" >
   <i type="int" name="ISYM">     2</i>
   <i name="SYMPREC">      0.00001000</i>
  </separator>
  <separator name="dos" >
   <i type="int" name="LORBIT">     0</i>
   <v name="RWIGS">     -1.00000000</v>
   <i type="int" name="NEDOS">   301</i>
   <i name="EMIN">     10.00000000</i>
   <i name="EMAX">    -10.00000000</i>
   <i name="EFERMI">      0.00000000</i>
  </separator>
  <separator name="writing" >
   <i type="int" name="NWRITE">     2</i>
   <i type="logical" name="LWAVE"> F  </i>
   <i type="logical" name="LDOWNSAMPLE"> F  </i>
   <i type="logical" name="LCHARG"> F  </i>
   <i type="logical" name="LPARD"> F  </i>
   <i type="logical" name="LVTOT"> F  </i>
   <i type="logical" name="LVHAR"> F  </i>
   <i type="logical" name="LELF"> F  </i>
   <i type="logical" name="LOPTICS"> F  </i>
   <v name="STM">      0.00000000      0.00000000      0.00000000      0.00000000      0.00000000      0.00000000      0.00000000</v>
  </separator>
  <separator name="performance" >
   <i type="int" name="NPAR">     2</i>
   <i type="int" name="NSIM">     4</i>
   <i type="int" name="NBLK">    -1</i>
   <i type="logical" name="LPLANE"> T  </i>
   <i type="logical" name="LSCALAPACK"> T  </i>
   <i type="logical" name="LSCAAWARE"> F  </i>
   <i type="logical" name="LSCALU"> F  </i>
   <i type="logical" name="LASYNC"> F  </i>
   <i type="logical" name="LORBITALREAL"> F  </i>
  </separator>
  <separator name="miscellaneous" >
   <i type="int" name="IDIOT">     3</i>
   <i type="int" name="PHON_NSTRUCT">    -1</i>
   <i type="logical" name="LMUSIC"> F  </i>
   <v name="POMASS">     12.01100000</v>
   <v name="DARWINR">      0.00000000</v>
   <v name="DARWINV">      1.00000000</v>
   <i type="logical" name="LCORR"> T  </i>
  </separator>
  <i type="logical" name="GGA_COMPAT"> T  </i>
  <i type="logical" name="LBERRY"> F  </i>
  <i type="int" name="ICORELEVEL">     0</i>
  <i type="logical" name="LDAU"> F  </i>
  <i type="int" name="I_CONSTRAINED_M">     0</i>
  <separator name="electronic exchange-correlation" >
   <i type="string" name="GGA">--</i>
   <i type="int" name="VOSKOWN">     0</i>
   <i type="logical" name="LHFCALC"> F  </i>
   <i type="string" name="PRECFOCK"></i>
   <i type="logical" name="LSYMGRAD"> F  </i>
   <i type="logical" name="LHFONE"> F  </i>
   <i type="logical" name="LRHFCALC"> F  </i>
   <i type="logical" name="LTHOMAS"> F  </i>
   <i type="logical" name="LMODELHF"> F  </i>
   <i type="logical" name="LFOCKACE"> F  </i>
   <i name="ENCUT4O">     -1.00000000</i>
   <i type="int" name="EXXOEP">     0</i>
   <i type="int" name="FOURORBIT">     0</i>
   <i name="AEXX">      0.00000000</i>
   <i name="HFALPHA">      0.00000000</i>
   <i name="MCALPHA">      0.00000000</i>
   <i name="ALDAX">      1.00000000</i>
   <i name="AGGAX">      1.00000000</i>
   <i name="ALDAC">      1.00000000</i>
   <i name="AGGAC">      1.00000000</i>
   <i type="int" name="NKREDX">     1</i>
   <i type="int" name="NKREDY">     1</i>
   <i type="int" name="NKREDZ">     1</i>
   <i type="logical" name="SHIFTRED"> F  </i>
   <i type="logical" name="ODDONLY"> F  </i>
   <i type="logical" name="EVENONLY"> F  </i>
   <i type="int" name="LMAXFOCK">     0</i>
   <i type="int" name="NMAXFOCKAE">     0</i>
   <i type="logical" name="LFOCKAEDFT"> F  </i>
   <i name="HFSCREEN">      0.00000000</i>
   <i name="HFSCREENC">      0.00000000</i>
   <i type="int" name="NBANDSGWLOW">     0</i>
  </separator>
  <separator name="vdW DFT" >
   <i type="logical" name="LUSE_VDW"> F  </i>
   <i type="int" name="IVDW_NL">     1</i>
   <i type="logical" name="LSPIN_VDW"> F  </i>
   <i name="Zab_VDW">     -0.84910000</i>
   <i name="PARAM1">      0.12340000</i>
   <i name="PARAM2">      1.00000000</i>
   <i name="PARAM3">      0.00000000</i>
  </separator>
  <separator name="model GW" >
   <i type="int" name="MODEL_GW">     0</i>
   <i name="MODEL_EPS0">     31.63027863</i>
   <i name="MODEL_ALPHA">      1.00000000</i>
  </separator>
  <separator name="linear response parameters" >
   <i type="logical" name="LEPSILON"> F  </i>
   <i type="logical" name="LRPA"> F  </i>
   <i type="logical" name="LNABLA"> F  </i>
   <i type="logical" name="LVEL"> F  </i>
   <i name="CSHIFT">      0.10000000</i>
   <i name="OMEGAMAX">     -1.00000000</i>
   <i name="DEG_THRESHOLD">      0.00200000</i>
   <i name="RTIME">     -0.10000000</i>
   <i name="WPLASMAI">      0.00000000</i>
   <v name="DFIELD">      0.00000000      0.00000000      0.00000000</v>
   <v name="WPLASMA">      0.00000000      0.00000000      0.00000000      0.00000000      0.00000000      0.00000000      0.00000000      0.00000000      0.00000000</v>
  </separator>
  <separator name="orbital magnetization" >
   <i type="logical" name="NUCIND"> F  </i>
   <v name="MAGPOS">      0.00000000      0.00000000      0.00000000</v>
   <i type="logical" name="LNICSALL"> T  </i>
   <i type="logical" name="ORBITALMAG"> F  </i>
   <i type="logical" name="LMAGBLOCH"> F  </i>
   <i type="logical" name="LCHIMAG"> F  </i>
   <i type="logical" name="LGAUGE"> T  </i>
   <i type="int" name="MAGATOM">     0</i>
   <v name="MAGDIPOL">      0.00000000      0.00000000      0.00000000</v>
   <v name="AVECCONST">      0.00000000      0.00000000      0.00000000</v>
  </separator>
  <separator name="response functions" >
   <i type="logical" name="LALL_IN_ONE"> F  </i>
   <i type="int" name="IALL_IN_ONE">    -1</i>
   <i type="int" name="NBANDS_WAVE">    -1</i>
   <i type="logical" name="LFINITE_TEMPERATURE"> F  </i>
   <i type="logical" name="LADDER"> F  </i>
   <i type="logical" name="LRPAFORCE"> F  </i>
   <i type="logical" name="LFXC"> F  </i>
   <i type="logical" name="LHARTREE"> T  </i>
   <i type="int" name="IBSE">     0</i>
   <v type="int" name="KPOINT">    -1     0     0     0</v>
   <i type="logical" name="LTCTC"> F  </i>
   <i type="logical" name="LTCTE"> F  </i>
   <i type="logical" name="LTETE"> F  </i>
   <i type="logical" name="LTRIPLET"> F  </i>
   <i type="logical" name="LFXCEPS"> F  </i>
   <i type="logical" name="LFXHEG"> F  </i>
   <i type="int" name="NATURALO">     2</i>
   <i type="logical" name="LHOLEGF"> F  </i>
   <i type="logical" name="L2ORDER"> F  </i>
   <i type="logical" name="LDMP1"> F  </i>
   <i type="logical" name="LMP2LT"> F  </i>
   <i type="logical" name="LSMP2LT"> F  </i>
   <i type="logical" name="LGWLF"> F  </i>
   <i name="ENCUTGW">     -1.60000002</i>
   <i name="ENCUTGWSOFT">     -1.60000002</i>
   <i name="ENCUTLF">     -1.00000000</i>
   <i type="logical" name="LESF_SPLINES"> F  </i>
   <i type="int" name="LMAXMP2">    -1</i>
   <i name="SCISSOR">      0.00000000</i>
   <i type="int" name="NOMEGA">     0</i>
   <i type="int" name="NOMEGAR">     0</i>
   <i type="int" name="NBANDSGW">    -1</i>
   <i type="int" name="NBANDSO">    -1</i>
   <i type="int" name="NBANDSV">    -1</i>
   <i type="int" name="NELMGW">     1</i>
   <i type="int" name="NELMHF">     1</i>
   <i type="int" name="DIM">     3</i>
   <i type="int" name="IESPILON">     4</i>
   <i type="int" name="ANTIRES">     0</i>
   <i name="OMEGAMAX">    -30.00000000</i>
   <i name="OMEGAMIN">    -30.00000000</i>
   <i name="OMEGATL">   -200.00000000</i>
   <i type="int" name="OMEGAGRID">     0</i>
   <i name="CSHIFT">     -0.10000000</i>
   <i type="logical" name="LSELFENERGY"> F  </i>
   <i type="logical" name="LSPECTRAL"> F  </i>
   <i type="logical" name="LSPECTRALGW"> F  </i>
   <i type="logical" name="LSINGLES"> F  </i>
   <i type="logical" name="LFERMIGW"> F  </i>
   <i type="logical" name="ODDONLYGW"> F  </i>
   <i type="logical" name="EVENONLYGW"> F  </i>
   <i type="int" name="NKREDLFX">     1</i>
   <i type="int" name="NKREDLFY">     1</i>
   <i type="int" name="NKREDLFZ">     1</i>
   <i type="int" name="MAXMEM">  2800</i>
   <i type="int" name="TELESCOPE">     0</i>
   <i type="int" name="NTAUPAR">    -1</i>
   <i type="int" name="NOMEGAPAR">    -1</i>
   <i name="DAMP_NEWTON">      0.80000001</i>
   <i name="LAMBDA">      1.00000000</i>
  </separator>
  <separator name="External order field" >
   <i name="OFIELD_KAPPA">      0.00000000</i>
   <v name="OFIELD_K">      0.00000000      0.00000000      0.00000000</v>
   <i name="OFIELD_Q6_NEAR">      0.00000000</i>
   <i name="OFIELD_Q6_FAR">      0.00000000</i>
   <i name="OFIELD_A">      0.00000000</i>
  </separator>
  <separator name="optional k-points parameters" >
   <i type="int" name="KPOINTS_OPT_MODE">     1</i>
   <i type="logical" name="LKPOINTS_OPT"> F  </i>
  </separator>
 </parameters>
 <atominfo>
  <atoms>      18 </atoms>
  <types>       1 </types>
  <array name="atoms" >
   <dimension dim="1">ion</dimension>
   <field type="string">element</field>
   <field type="int">atomtype</field>
   <set>
    <rc><c>C </c><c>   1</c></rc>
    <rc><c>C </c><c>   1</c></rc>
    <rc><c>C </c><c>   1</c></rc>
    <rc><c>C </c><c>   1</c></rc>
    <rc><c>C </c><c>   1</c></rc>
    <rc><c>C </c><c>   1</c></rc>
    <rc><c>C </c><c>   1</c></rc>
    <rc><c>C </c><c>   1</c></rc>
    <rc><c>C </c><c>   1</c></rc>
    <rc><c>C </c><c>   1</c></rc>
    <rc><c>C </c><c>   1</c></rc>
    <rc><c>C </c><c>   1</c></rc>
    <rc><c>C </c><c>   1</c></rc>
    <rc><c>C </c><c>   1</c></rc>
    <rc><c>C </c><c>   1</c></rc>
    <rc><c>C </c><c>   1</c></rc>
    <rc><c>C </c><c>   1</c></rc>
    <rc><c>C </c><c>   1</c></rc>
   </set>
  </array>
  <array name="atomtypes" >
   <dimension dim="1">type</dimension>
   <field type="int">atomspertype</field>
   <field type="string">element</field>
   <field>mass</field>
   <field>valence</field>
   <field type="string">pseudopotential</field>
   <set>
    <rc><c>  18</c><c>C </c><c>     12.01100000</c><c>      4.00000000</c><c>  PAW_PBE C 08Apr2002                   </c></rc>
   </set>
  </array>
 </atominfo>
 <structure name="initialpos" >
  <crystal>
   <varray name="basis" >
    <v>       7.40170591       0.00000000       0.00000000 </v>
    <v>      -3.70085295       6.41006527       0.00000000 </v>
    <v>       0.00000000       0.00000000      20.00000000 </v>
   </varray>
   <i name="volume">    948.90835877 </i>
   <varray name="rec_basis" >
    <v>       0.13510399       0.07800233       0.00000000 </v>
    <v>       0.00000000       0.15600465       0.00000000 </v>
    <v>       0.00000000       0.00000000       0.05000000 </v>
   </varray>
  </crystal>
  <varray name="positions" >
   <v>       0.00135104       0.00000000       0.50000000 </v>
   <v>       0.33333333       0.00000000       0.50000000 </v>
   <v>       0.66666667       0.00000000       0.50000000 </v>
   <v>       0.00000000       0.33333333       0.50000000 </v>
   <v>       0.33333333       0.33333333       0.50000000 </v>
   <v>       0.66666667       0.33333333       0.50000000 </v>
   <v>       0.00000000       0.66666667       0.50000000 </v>
   <v>       0.33333333       0.66666667       0.50000000 </v>
   <v>       0.66666667       0.66666667       0.50000000 </v>
   <v>       0.22087118       0.11111111       0.50000000 </v>
   <v>       0.55555556       0.11111111       0.50000000 </v>
   <v>       0.88888889       0.11111111       0.50000000 </v>
   <v>       0.22222222       0.44444444       0.50000000 </v>
   <v>       0.55555556       0.44444444       0.50000000 </v>
   <v>       0.88888889       0.44444444       0.50000000 </v>
   <v>       0.22222222       0.77777778       0.50000000 </v>
   <v>       0.55555556       0.77777778       0.50000000 </v>
   <v>       0.88888889       0.77777778       0.50000000 </v>
  </varray>
 </structure>
 <calculation>
  <scstep>
   <time name="dav">    5.99    6.17</time>
   <time name="total">    6.08    6.26</time>
   <energy>
    <i name="alphaZ">     28.04858418 </i>
    <i name="ewald">  11638.88726810 </i>
    <i name="hartreedc"> -13553.18424522 </i>
    <i name="XCdc">    237.17793165 </i>
    <i name="pawpsdc">   1953.39683484 </i>
    <i name="pawaedc">  -1963.64613940 </i>
    <i name="eentropy">     -0.00840999 </i>
    <i name="bandstr">   -257.75067443 </i>
    <i name="atom">   2648.70517965 </i>
    <i name="e_fr_energy">    731.62632939 </i>
    <i name="e_wo_entrp">    731.63473938 </i>
    <i name="e_0_energy">    731.63053438 </i>
   </energy>
  </scstep>
  <scstep>
   <time name="dav">    7.89    8.13</time>
   <time name="total">    7.89    8.14</time>
   <energy>
    <i name="e_fr_energy">    -23.89735593 </i>
    <i name="e_wo_entrp">    -23.89693622 </i>
    <i name="e_0_energy">    -23.89714608 </i>
   </energy>
  </scstep>
  <scstep>
   <time name="dav">    6.42    5.65</time>
   <time name="total">    6.42    5.65</time>
   <energy>
    <i name="e_fr_energy">   -172.28278563 </i>
    <i name="e_wo_entrp">   -172.28161710 </i>
    <i name="e_0_energy">   -172.28220136 </i>
   </energy>
  </scstep>
  <scstep>
   <time name="dav">    6.29    6.47</time>
   <time name="total">    6.29    6.47</time>
   <energy>
    <i name="e_fr_energy">   -177.34458089 </i>
    <i name="e_wo_entrp">   -177.34270715 </i>
    <i name="e_0_energy">   -177.34364402 </i>
   </energy>
  </scstep>
  <scstep>
   <time name="dav">    7.18    7.40</time>
   <time name="total">    7.45    7.68</time>
   <energy>
    <i name="e_fr_energy">   -177.48283495 </i>
    <i name="e_wo_entrp">   -177.48094918 </i>
    <i name="e_0_energy">   -177.48189207 </i>
   </energy>
  </scstep>
  <scstep>
   <time name="dav">    5.92    6.10</time>
   <time name="total">    6.27    6.46</time>
   <energy>
    <i name="e_fr_energy">   -169.31393692 </i>
    <i name="e_wo_entrp">   -169.31197843 </i>
    <i name="e_0_energy">   -169.31295767 </i>
   </energy>
  </scstep>
  <scstep>
   <time name="dav">    5.92    6.10</time>
   <time name="total">    6.27    6.46</time>
   <energy>
    <i name="e_fr_energy">   -166.14624859 </i>
    <i name="e_wo_entrp">   -166.14424563 </i>
    <i name="e_0_energy">   -166.14524711 </i>
   </energy>
  </scstep>
  <scstep>
   <time name="dav">    6.19    5.42</time>
   <time name="total">    6.54    5.79</time>
   <energy>
    <i name="e_fr_energy">   -166.08338331 </i>
    <i name="e_wo_entrp">   -166.08139582 </i>
    <i name="e_0_energy">   -166.08238956 </i>
   </energy>
  </scstep>
  <scstep>
   <time name="dav">    6.58    6.78</time>
   <time name="total">    6.93    7.14</time>
   <energy>
    <i name="e_fr_energy">   -166.07049134 </i>
    <i name="e_wo_entrp">   -166.06849992 </i>
    <i name="e_0_energy">   -166.06949563 </i>
   </energy>
  </scstep>
  <scstep>
   <time name="dav">    5.79    5.97</time>
   <time name="total">    6.13    6.33</time>
   <energy>
    <i name="e_fr_energy">   -166.05204046 </i>
    <i name="e_wo_entrp">   -166.05004599 </i>
    <i name="e_0_energy">   -166.05104323 </i>
   </energy>
  </scstep>
  <scstep>
   <time name="dav">    5.80    5.98</time>
   <time name="total">    6.14    6.34</time>
   <energy>
    <i name="e_fr_energy">   -166.05516434 </i>
    <i name="e_wo_entrp">   -166.05317175 </i>
    <i name="e_0_energy">   -166.05416804 </i>
   </energy>
  </scstep>
  <scstep>
   <time name="dav">    5.87    6.03</time>
   <time name="total">    6.21    6.39</time>
   <energy>
    <i name="e_fr_energy">   -166.05970496 </i>
    <i name="e_wo_entrp">   -166.05771287 </i>
    <i name="e_0_energy">   -166.05870892 </i>
   </energy>
  </scstep>
  <scstep>
   <time name="dav">    5.68    4.73</time>
   <time name="total">    6.04    5.09</time>
   <energy>
    <i name="e_fr_energy">   -166.06415172 </i>
    <i name="e_wo_entrp">   -166.06215879 </i>
    <i name="e_0_energy">   -166.06315525 </i>
   </energy>
  </scstep>
  <scstep>
   <time name="dav">    5.64    5.72</time>
   <time name="total">    6.00    6.09</time>
   <energy>
    <i name="e_fr_energy">   -166.06774595 </i>
    <i name="e_wo_entrp">   -166.06575297 </i>
    <i name="e_0_energy">   -166.06674946 </i>
   </energy>
  </scstep>
  <scstep>
   <time name="dav">    5.79    5.97</time>
   <time name="total">    6.13    6.33</time>
   <energy>
    <i name="e_fr_energy">   -166.06931422 </i>
    <i name="e_wo_entrp">   -166.06732123 </i>
    <i name="e_0_energy">   -166.06831773 </i>
   </energy>
  </scstep>
  <scstep>
   <time name="dav">    6.00    6.21</time>
   <time name="total">    6.35    6.58</time>
   <energy>
    <i name="e_fr_energy">   -166.06946970 </i>
    <i name="e_wo_entrp">   -166.06747676 </i>
    <i name="e_0_energy">   -166.06847323 </i>
   </energy>
  </scstep>
  <scstep>
   <time name="dav">    5.44    5.62</time>
   <time name="total">    5.78    5.98</time>
   <energy>
    <i name="e_fr_energy">   -166.06968435 </i>
    <i name="e_wo_entrp">   -166.06769155 </i>
    <i name="e_0_energy">   -166.06868795 </i>
   </energy>
  </scstep>
  <scstep>
   <time name="dav">    5.06    4.45</time>
   <time name="total">    5.40    4.81</time>
   <energy>
    <i name="e_fr_energy">   -166.06973375 </i>
    <i name="e_wo_entrp">   -166.06774086 </i>
    <i name="e_0_energy">   -166.06873730 </i>
   </energy>
  </scstep>
  <scstep>
   <time name="dav">    4.98    5.06</time>
   <time name="total">    5.33    5.42</time>
   <energy>
    <i name="e_fr_energy">   -166.06976710 </i>
    <i name="e_wo_entrp">   -166.06777418 </i>
    <i name="e_0_energy">   -166.06877064 </i>
   </energy>
  </scstep>
  <scstep>
   <time name="dav">    4.83    4.96</time>
   <time name="total">    5.18    5.32</time>
   <energy>
    <i name="e_fr_energy">   -166.06979385 </i>
    <i name="e_wo_entrp">   -166.06780097 </i>
    <i name="e_0_energy">   -166.06879741 </i>
   </energy>
  </scstep>
  <scstep>
   <time name="dav">    3.88    4.03</time>
   <time name="total">    4.23    4.39</time>
   <energy>
    <i name="e_fr_energy">   -166.06980231 </i>
    <i name="e_wo_entrp">   -166.06780941 </i>
    <i name="e_0_energy">   -166.06880586 </i>
   </energy>
  </scstep>
  <scstep>
   <time name="dav">    3.93    4.06</time>
   <time name="total">    4.28    4.43</time>
   <energy>
    <i name="e_fr_energy">   -166.06980589 </i>
    <i name="e_wo_entrp">   -166.06781300 </i>
    <i name="e_0_energy">   -166.06880945 </i>
   </energy>
  </scstep>
  <scstep>
   <time name="dav">    4.09    4.22</time>
   <time name="total">    4.18    4.31</time>
   <energy>
    <i name="alphaZ">     28.04858418 </i>
    <i name="ewald">  11638.88726810 </i>
    <i name="hartreedc"> -13861.53375693 </i>
    <i name="XCdc">    247.81495540 </i>
    <i name="pawpsdc">   7453.18242456 </i>
    <i name="pawaedc">  -7465.44595859 </i>
    <i name="eentropy">     -0.00199289 </i>
    <i name="bandstr">   -855.72650965 </i>
    <i name="atom">   2648.70517965 </i>
    <i name="e_fr_energy">   -166.06980617 </i>
    <i name="e_wo_entrp">   -166.06781328 </i>
    <i name="e_0_energy">   -166.06880972 </i>
   </energy>
  </scstep>
  <structure>
   <crystal>
    <varray name="basis" >
     <v>       7.40170591       0.00000000       0.00000000 </v>
     <v>      -3.70085295       6.41006527       0.00000000 </v>
     <v>       0.00000000       0.00000000      20.00000000 </v>
    </varray>
    <i name="volume">    948.90835877 </i>
    <varray name="rec_basis" >
     <v>       0.13510399       0.07800233       0.00000000 </v>
     <v>       0.00000000       0.15600465       0.00000000 </v>
     <v>       0.00000000       0.00000000       0.05000000 </v>
    </varray>
   </crystal>
   <varray name="positions" >
    <v>       0.00135104       0.00000000       0.50000000 </v>
    <v>       0.33333333       0.00000000       0.50000000 </v>
    <v>       0.66666667       0.00000000       0.50000000 </v>
    <v>       0.00000000       0.33333333       0.50000000 </v>
    <v>       0.33333333       0.33333333       0.50000000 </v>
    <v>       0.66666667       0.33333333       0.50000000 </v>
    <v>       0.00000000       0.66666667       0.50000000 </v>
    <v>       0.33333333       0.66666667       0.50000000 </v>
    <v>       0.66666667       0.66666667       0.50000000 </v>
    <v>       0.22087118       0.11111111       0.50000000 </v>
    <v>       0.55555556       0.11111111       0.50000000 </v>
    <v>       0.88888889       0.11111111       0.50000000 </v>
    <v>       0.22222222       0.44444444       0.50000000 </v>
    <v>       0.55555556       0.44444444       0.50000000 </v>
    <v>       0.88888889       0.44444444       0.50000000 </v>
    <v>       0.22222222       0.77777778       0.50000000 </v>
    <v>       0.55555556       0.77777778       0.50000000 </v>
    <v>       0.88888889       0.77777778       0.50000000 </v>
   </varray>
  </structure>
  <varray name="forces" >
   <v>      -0.81973757      -0.07488439       0.00000000 </v>
   <v>      -0.14727816       0.03859339       0.00000000 </v>
   <v>       0.05072975       0.01297301       0.00000000 </v>
   <v>       0.01126162      -0.06759602      -0.00000000 </v>
   <v>      -0.11341849       0.04587559       0.00000000 </v>
   <v>       0.04679208       0.02254919      -0.00000000 </v>
   <v>      -0.02789178      -0.01890562       0.00000000 </v>
   <v>       0.04733780       0.01029175      -0.00000000 </v>
   <v>       0.01272834       0.01016679       0.00000000 </v>
   <v>       0.81973757       0.07488439      -0.00000000 </v>
   <v>      -0.05072975      -0.01297301       0.00000000 </v>
   <v>       0.14727816      -0.03859339      -0.00000000 </v>
   <v>       0.02789178       0.01890562      -0.00000000 </v>
   <v>      -0.01272834      -0.01016679       0.00000000 </v>
   <v>      -0.04733780      -0.01029175      -0.00000000 </v>
   <v>      -0.01126162       0.06759602       0.00000000 </v>
   <v>      -0.04679208      -0.02254919       0.00000000 </v>
   <v>       0.11341849      -0.04587559       0.00000000 </v>
  </varray>
  <varray name="stress" >
   <v>      -0.11951955       0.16454710       0.00000000 </v>
   <v>       0.16454710      -0.13857055       0.00000000 </v>
   <v>       0.00000000       0.00000000      -0.56474728 </v>
  </varray>
  <energy>
   <i name="e_fr_energy">   -166.06980617 </i>
   <i name="e_wo_entrp">   -166.06781328 </i>
   <i name="e_0_energy">   -166.06880972 </i>
  </energy>
  <time name="totalsc">  142.63  143.03</time>
  <eigenvalues>
   <array>
    <dimension dim="1">band</dimension>
    <dimension dim="2">kpoint</dimension>
    <dimension dim="3">spin</dimension>
    <field>eigene</field>
    <field>occ</field>
    <set>
     <set comment="spin 1">
      <set comment="kpoint 1">
       <r>  -22.2560    1.0000 </r>
       <r>  -19.7067    1.0000 </r>
       <r>  -19.6763    1.0000 </r>
       <r>  -19.6729    1.0000 </r>
       <r>  -19.6711    1.0000 </r>
       <r>  -19.6673    1.0000 </r>
       <r>  -19.6465    1.0000 </r>
       <r>  -15.3692    1.0000 </r>
       <r>  -15.3407    1.0000 </r>
       <r>  -15.3333    1.0000 </r>
       <r>  -15.3204    1.0000 </r>
       <r>  -13.2940    1.0000 </r>
       <r>  -13.2856    1.0000 </r>
       <r>  -12.4176    1.0000 </r>
       <r>  -12.3903    1.0000 </r>
       <r>  -12.3719    1.0000 </r>
       <r>  -12.3656    1.0000 </r>
       <r>  -12.3579    1.0000 </r>
       <r>  -12.3441    1.0000 </r>
       <r>  -10.3600    1.0000 </r>
       <r>   -8.5745    1.0000 </r>
       <r>   -8.5267    1.0000 </r>
       <r>   -8.5238    1.0000 </r>
       <r>   -8.5190    1.0000 </r>
       <r>   -8.5039    1.0000 </r>
       <r>   -8.4931    1.0000 </r>
       <r>   -7.3997    1.0000 </r>
       <r>   -7.3722    1.0000 </r>
       <r>   -7.3714    1.0000 </r>
       <r>   -7.3695    1.0000 </r>
       <r>   -7.3665    1.0000 </r>
       <r>   -7.3467    1.0000 </r>
       <r>   -5.8167    1.0000 </r>
       <r>   -5.7509    1.0000 </r>
       <r>   -2.7844    0.7965 </r>
       <r>   -2.7560    0.5110 </r>
       <r>   -2.7519    0.4648 </r>
       <r>   -2.7287    0.2277 </r>
       <r>    0.5196    0.0000 </r>
       <r>    1.3118    0.0000 </r>
       <r>    1.6349    0.0000 </r>
       <r>    2.1055    0.0000 </r>
       <r>    2.1370    0.0000 </r>
       <r>    2.1466    0.0000 </r>
       <r>    2.1472    0.0000 </r>
       <r>    2.1504    0.0000 </r>
      </set>
      <set comment="kpoint 2">
       <r>  -22.2025    1.0000 </r>
       <r>  -20.3498    1.0000 </r>
       <r>  -19.9865    1.0000 </r>
       <r>  -19.9819    1.0000 </r>
       <r>  -19.2650    1.0000 </r>
       <r>  -19.2598    1.0000 </r>
       <r>  -18.9062    1.0000 </r>
       <r>  -16.0037    1.0000 </r>
       <r>  -15.9886    1.0000 </r>
       <r>  -14.9220    1.0000 </r>
       <r>  -14.9018    1.0000 </r>
       <r>  -13.6072    1.0000 </r>
       <r>  -12.9815    1.0000 </r>
       <r>  -12.9655    1.0000 </r>
       <r>  -12.9543    1.0000 </r>
       <r>  -12.9447    1.0000 </r>
       <r>  -11.7376    1.0000 </r>
       <r>  -11.7194    1.0000 </r>
       <r>  -11.1292    1.0000 </r>
       <r>  -10.2960    1.0000 </r>
       <r>   -8.8860    1.0000 </r>
       <r>   -8.8572    1.0000 </r>
       <r>   -8.8136    1.0000 </r>
       <r>   -8.5316    1.0000 </r>
       <r>   -8.5034    1.0000 </r>
       <r>   -8.1252    1.0000 </r>
       <r>   -8.1153    1.0000 </r>
       <r>   -7.7190    1.0000 </r>
       <r>   -7.7119    1.0000 </r>
       <r>   -6.9282    1.0000 </r>
       <r>   -6.9206    1.0000 </r>
       <r>   -6.5514    1.0000 </r>
       <r>   -6.0328    1.0000 </r>
       <r>   -5.8704    1.0000 </r>
       <r>   -3.5342    1.0000 </r>
       <r>   -3.5203    1.0000 </r>
       <r>   -2.0120    0.0000 </r>
       <r>   -1.9958    0.0000 </r>
       <r>    0.5922    0.0000 </r>
       <r>    0.8617    0.0000 </r>
       <r>    1.3854    0.0000 </r>
       <r>    1.4717    0.0000 </r>
       <r>    1.4848    0.0000 </r>
       <r>    1.7094    0.0000 </r>
       <r>    2.6300    0.0000 </r>
       <r>    2.7628    0.0000 </r>
      </set>
      <set comment="kpoint 3">
       <r>  -22.2024    1.0000 </r>
       <r>  -20.3493    1.0000 </r>
       <r>  -19.9980    1.0000 </r>
       <r>  -19.9710    1.0000 </r>
       <r>  -19.2762    1.0000 </r>
       <r>  -19.2486    1.0000 </r>
       <r>  -18.9062    1.0000 </r>
       <r>  -16.0090    1.0000 </r>
       <r>  -15.9821    1.0000 </r>
       <r>  -14.9274    1.0000 </r>
       <r>  -14.8989    1.0000 </r>
       <r>  -13.5986    1.0000 </r>
       <r>  -12.9829    1.0000 </r>
       <r>  -12.9684    1.0000 </r>
       <r>  -12.9579    1.0000 </r>
       <r>  -12.9430    1.0000 </r>
       <r>  -11.7489    1.0000 </r>
       <r>  -11.7220    1.0000 </r>
       <r>  -11.1169    1.0000 </r>
       <r>  -10.2960    1.0000 </r>
       <r>   -8.8848    1.0000 </r>
       <r>   -8.8512    1.0000 </r>
       <r>   -8.8217    1.0000 </r>
       <r>   -8.5230    1.0000 </r>
       <r>   -8.4959    1.0000 </r>
       <r>   -8.1301    1.0000 </r>
       <r>   -8.1272    1.0000 </r>
       <r>   -7.7255    1.0000 </r>
       <r>   -7.7019    1.0000 </r>
       <r>   -6.9347    1.0000 </r>
       <r>   -6.9108    1.0000 </r>
       <r>   -6.5570    1.0000 </r>
       <r>   -6.0132    1.0000 </r>
       <r>   -5.8903    1.0000 </r>
       <r>   -3.5406    1.0000 </r>
       <r>   -3.5129    1.0000 </r>
       <r>   -2.0206    0.0000 </r>
       <r>   -1.9883    0.0000 </r>
       <r>    0.5922    0.0000 </r>
       <r>    0.8749    0.0000 </r>
       <r>    1.3853    0.0000 </r>
       <r>    1.4556    0.0000 </r>
       <r>    1.4927    0.0000 </r>
       <r>    1.7094    0.0000 </r>
       <r>    2.6299    0.0000 </r>
       <r>    2.7437    0.0000 </r>
      </set>
      <set comment="kpoint 4">
       <r>  -22.2024    1.0000 </r>
       <r>  -20.3490    1.0000 </r>
       <r>  -19.9909    1.0000 </r>
       <r>  -19.9788    1.0000 </r>
       <r>  -19.2681    1.0000 </r>
       <r>  -19.2569    1.0000 </r>
       <r>  -18.9056    1.0000 </r>
       <r>  -15.9990    1.0000 </r>
       <r>  -15.9907    1.0000 </r>
       <r>  -14.9226    1.0000 </r>
       <r>  -14.9069    1.0000 </r>
       <r>  -13.5884    1.0000 </r>
       <r>  -12.9904    1.0000 </r>
       <r>  -12.9715    1.0000 </r>
       <r>  -12.9544    1.0000 </r>
       <r>  -12.9438    1.0000 </r>
       <r>  -11.7509    1.0000 </r>
       <r>  -11.7326    1.0000 </r>
       <r>  -11.1051    1.0000 </r>
       <r>  -10.2961    1.0000 </r>
       <r>   -8.8718    1.0000 </r>
       <r>   -8.8507    1.0000 </r>
       <r>   -8.8367    1.0000 </r>
       <r>   -8.5101    1.0000 </r>
       <r>   -8.4902    1.0000 </r>
       <r>   -8.1467    1.0000 </r>
       <r>   -8.1295    1.0000 </r>
       <r>   -7.7165    1.0000 </r>
       <r>   -7.7073    1.0000 </r>
       <r>   -6.9259    1.0000 </r>
       <r>   -6.9165    1.0000 </r>
       <r>   -6.5623    1.0000 </r>
       <r>   -5.9814    1.0000 </r>
       <r>   -5.9224    1.0000 </r>
       <r>   -3.5330    1.0000 </r>
       <r>   -3.5195    1.0000 </r>
       <r>   -2.0133    0.0000 </r>
       <r>   -1.9967    0.0000 </r>
       <r>    0.5922    0.0000 </r>
       <r>    0.8882    0.0000 </r>
       <r>    1.3853    0.0000 </r>
       <r>    1.4608    0.0000 </r>
       <r>    1.4787    0.0000 </r>
       <r>    1.7094    0.0000 </r>
       <r>    2.6299    0.0000 </r>
       <r>    2.7479    0.0000 </r>
      </set>
      <set comment="kpoint 5">
       <r>  -22.0420    1.0000 </r>
       <r>  -20.9271    1.0000 </r>
       <r>  -20.1946    1.0000 </r>
       <r>  -20.1904    1.0000 </r>
       <r>  -18.7587    1.0000 </r>
       <r>  -18.7524    1.0000 </r>
       <r>  -18.0627    1.0000 </r>
       <r>  -16.7512    1.0000 </r>
       <r>  -16.7403    1.0000 </r>
       <r>  -14.7646    1.0000 </r>
       <r>  -14.6299    1.0000 </r>
       <r>  -14.6122    1.0000 </r>
       <r>  -13.5034    1.0000 </r>
       <r>  -13.4880    1.0000 </r>
       <r>  -12.1922    1.0000 </r>
       <r>  -12.1795    1.0000 </r>
       <r>  -11.0981    1.0000 </r>
       <r>  -11.0788    1.0000 </r>
       <r>  -10.1046    1.0000 </r>
       <r>   -9.8751    1.0000 </r>
       <r>   -9.5124    1.0000 </r>
       <r>   -9.4882    1.0000 </r>
       <r>   -9.0251    1.0000 </r>
       <r>   -8.7906    1.0000 </r>
       <r>   -8.7859    1.0000 </r>
       <r>   -8.7587    1.0000 </r>
       <r>   -7.9499    1.0000 </r>
       <r>   -7.9433    1.0000 </r>
       <r>   -7.6535    1.0000 </r>
       <r>   -6.6464    1.0000 </r>
       <r>   -6.3835    1.0000 </r>
       <r>   -6.3748    1.0000 </r>
       <r>   -6.1904    1.0000 </r>
       <r>   -5.7563    1.0000 </r>
       <r>   -4.3058    1.0000 </r>
       <r>   -4.2937    1.0000 </r>
       <r>   -1.2900    0.0000 </r>
       <r>   -1.2734    0.0000 </r>
       <r>   -0.2544    0.0000 </r>
       <r>    0.7841    0.0000 </r>
       <r>    0.7990    0.0000 </r>
       <r>    0.8102    0.0000 </r>
       <r>    1.6062    0.0000 </r>
       <r>    1.9328    0.0000 </r>
       <r>    2.3341    0.0000 </r>
       <r>    2.8513    0.0000 </r>
      </set>
      <set comment="kpoint 6">
       <r>  -22.0419    1.0000 </r>
       <r>  -20.9268    1.0000 </r>
       <r>  -20.2063    1.0000 </r>
       <r>  -20.1794    1.0000 </r>
       <r>  -18.7693    1.0000 </r>
       <r>  -18.7415    1.0000 </r>
       <r>  -18.0632    1.0000 </r>
       <r>  -16.7590    1.0000 </r>
       <r>  -16.7316    1.0000 </r>
       <r>  -14.7544    1.0000 </r>
       <r>  -14.6367    1.0000 </r>
       <r>  -14.6110    1.0000 </r>
       <r>  -13.5110    1.0000 </r>
       <r>  -13.4872    1.0000 </r>
       <r>  -12.1994    1.0000 </r>
       <r>  -12.1689    1.0000 </r>
       <r>  -11.1115    1.0000 </r>
       <r>  -11.0848    1.0000 </r>
       <r>  -10.1047    1.0000 </r>
       <r>   -9.8604    1.0000 </r>
       <r>   -9.5116    1.0000 </r>
       <r>   -9.4796    1.0000 </r>
       <r>   -9.0376    1.0000 </r>
       <r>   -8.7918    1.0000 </r>
       <r>   -8.7732    1.0000 </r>
       <r>   -8.7486    1.0000 </r>
       <r>   -7.9567    1.0000 </r>
       <r>   -7.9330    1.0000 </r>
       <r>   -7.6706    1.0000 </r>
       <r>   -6.6237    1.0000 </r>
       <r>   -6.3896    1.0000 </r>
       <r>   -6.3656    1.0000 </r>
       <r>   -6.2138    1.0000 </r>
       <r>   -5.7650    1.0000 </r>
       <r>   -4.3119    1.0000 </r>
       <r>   -4.2860    1.0000 </r>
       <r>   -1.3000    0.0000 </r>
       <r>   -1.2655    0.0000 </r>
       <r>   -0.2378    0.0000 </r>
       <r>    0.7695    0.0000 </r>
       <r>    0.8068    0.0000 </r>
       <r>    0.8102    0.0000 </r>
       <r>    1.6062    0.0000 </r>
       <r>    1.9328    0.0000 </r>
       <r>    2.3341    0.0000 </r>
       <r>    2.8513    0.0000 </r>
      </set>
      <set comment="kpoint 7">
       <r>  -22.0419    1.0000 </r>
       <r>  -20.9265    1.0000 </r>
       <r>  -20.1993    1.0000 </r>
       <r>  -20.1873    1.0000 </r>
       <r>  -18.7610    1.0000 </r>
       <r>  -18.7498    1.0000 </r>
       <r>  -18.0635    1.0000 </r>
       <r>  -16.7486    1.0000 </r>
       <r>  -16.7403    1.0000 </r>
       <r>  -14.7462    1.0000 </r>
       <r>  -14.6334    1.0000 </r>
       <r>  -14.6184    1.0000 </r>
       <r>  -13.5114    1.0000 </r>
       <r>  -13.4952    1.0000 </r>
       <r>  -12.1887    1.0000 </r>
       <r>  -12.1746    1.0000 </r>
       <r>  -11.1177    1.0000 </r>
       <r>  -11.0979    1.0000 </r>
       <r>  -10.1049    1.0000 </r>
       <r>   -9.8460    1.0000 </r>
       <r>   -9.4970    1.0000 </r>
       <r>   -9.4831    1.0000 </r>
       <r>   -9.0516    1.0000 </r>
       <r>   -8.7932    1.0000 </r>
       <r>   -8.7586    1.0000 </r>
       <r>   -8.7392    1.0000 </r>
       <r>   -7.9476    1.0000 </r>
       <r>   -7.9385    1.0000 </r>
       <r>   -7.6890    1.0000 </r>
       <r>   -6.5979    1.0000 </r>
       <r>   -6.3810    1.0000 </r>
       <r>   -6.3713    1.0000 </r>
       <r>   -6.2407    1.0000 </r>
       <r>   -5.7737    1.0000 </r>
       <r>   -4.3040    1.0000 </r>
       <r>   -4.2920    1.0000 </r>
       <r>   -1.2930    0.0000 </r>
       <r>   -1.2752    0.0000 </r>
       <r>   -0.2205    0.0000 </r>
       <r>    0.7755    0.0000 </r>
       <r>    0.7938    0.0000 </r>
       <r>    0.8102    0.0000 </r>
       <r>    1.6061    0.0000 </r>
       <r>    1.9328    0.0000 </r>
       <r>    2.3340    0.0000 </r>
       <r>    2.8513    0.0000 </r>
      </set>
      <set comment="kpoint 8">
       <r>  -21.7753    1.0000 </r>
       <r>  -21.4030    1.0000 </r>
       <r>  -20.2991    1.0000 </r>
       <r>  -20.2950    1.0000 </r>
       <r>  -18.1631    1.0000 </r>
       <r>  -18.1549    1.0000 </r>
       <r>  -17.4863    1.0000 </r>
       <r>  -17.4774    1.0000 </r>
       <r>  -17.2240    1.0000 </r>
       <r>  -15.7583    1.0000 </r>
       <r>  -14.3274    1.0000 </r>
       <r>  -14.3116    1.0000 </r>
       <r>  -13.9551    1.0000 </r>
       <r>  -13.9398    1.0000 </r>
       <r>  -11.2699    1.0000 </r>
       <r>  -11.2541    1.0000 </r>
       <r>  -10.5912    1.0000 </r>
       <r>  -10.5732    1.0000 </r>
       <r>  -10.3420    1.0000 </r>
       <r>  -10.3211    1.0000 </r>
       <r>   -9.7875    1.0000 </r>
       <r>   -9.3476    1.0000 </r>
       <r>   -9.1326    1.0000 </r>
       <r>   -9.1202    1.0000 </r>
       <r>   -9.0946    1.0000 </r>
       <r>   -8.6623    1.0000 </r>
       <r>   -8.0663    1.0000 </r>
       <r>   -8.0599    1.0000 </r>
       <r>   -7.5584    1.0000 </r>
       <r>   -7.1491    1.0000 </r>
       <r>   -6.6405    1.0000 </r>
       <r>   -5.7541    1.0000 </r>
       <r>   -5.7437    1.0000 </r>
       <r>   -5.1866    1.0000 </r>
       <r>   -5.0521    1.0000 </r>
       <r>   -5.0428    1.0000 </r>
       <r>   -0.9920    0.0000 </r>
       <r>   -0.5907    0.0000 </r>
       <r>   -0.5747    0.0000 </r>
       <r>    0.0970    0.0000 </r>
       <r>    0.1135    0.0000 </r>
       <r>    1.1735    0.0000 </r>
       <r>    1.6817    0.0000 </r>
       <r>    1.9736    0.0000 </r>
       <r>    2.3052    0.0000 </r>
       <r>    2.4866    0.0000 </r>
      </set>
      <set comment="kpoint 9">
       <r>  -21.7751    1.0000 </r>
       <r>  -21.4029    1.0000 </r>
       <r>  -20.3109    1.0000 </r>
       <r>  -20.2839    1.0000 </r>
       <r>  -18.1723    1.0000 </r>
       <r>  -18.1445    1.0000 </r>
       <r>  -17.4954    1.0000 </r>
       <r>  -17.4675    1.0000 </r>
       <r>  -17.2292    1.0000 </r>
       <r>  -15.7458    1.0000 </r>
       <r>  -14.3345    1.0000 </r>
       <r>  -14.3097    1.0000 </r>
       <r>  -13.9624    1.0000 </r>
       <r>  -13.9388    1.0000 </r>
       <r>  -11.2756    1.0000 </r>
       <r>  -11.2430    1.0000 </r>
       <r>  -10.6098    1.0000 </r>
       <r>  -10.5863    1.0000 </r>
       <r>  -10.3429    1.0000 </r>
       <r>  -10.3115    1.0000 </r>
       <r>   -9.7878    1.0000 </r>
       <r>   -9.3484    1.0000 </r>
       <r>   -9.1482    1.0000 </r>
       <r>   -9.0955    1.0000 </r>
       <r>   -9.0811    1.0000 </r>
       <r>   -8.6457    1.0000 </r>
       <r>   -8.0731    1.0000 </r>
       <r>   -8.0494    1.0000 </r>
       <r>   -7.5399    1.0000 </r>
       <r>   -7.1663    1.0000 </r>
       <r>   -6.6626    1.0000 </r>
       <r>   -5.7594    1.0000 </r>
       <r>   -5.7351    1.0000 </r>
       <r>   -5.1985    1.0000 </r>
       <r>   -5.0592    1.0000 </r>
       <r>   -5.0347    1.0000 </r>
       <r>   -0.9699    0.0000 </r>
       <r>   -0.6030    0.0000 </r>
       <r>   -0.5668    0.0000 </r>
       <r>    0.0840    0.0000 </r>
       <r>    0.1210    0.0000 </r>
       <r>    1.1734    0.0000 </r>
       <r>    1.6817    0.0000 </r>
       <r>    1.9736    0.0000 </r>
       <r>    2.3052    0.0000 </r>
       <r>    2.4865    0.0000 </r>
      </set>
      <set comment="kpoint 10">
       <r>  -21.7750    1.0000 </r>
       <r>  -21.4026    1.0000 </r>
       <r>  -20.3039    1.0000 </r>
       <r>  -20.2918    1.0000 </r>
       <r>  -18.1640    1.0000 </r>
       <r>  -18.1528    1.0000 </r>
       <r>  -17.4861    1.0000 </r>
       <r>  -17.4761    1.0000 </r>
       <r>  -17.2320    1.0000 </r>
       <r>  -15.7332    1.0000 </r>
       <r>  -14.3338    1.0000 </r>
       <r>  -14.3174    1.0000 </r>
       <r>  -13.9617    1.0000 </r>
       <r>  -13.9466    1.0000 </r>
       <r>  -11.2626    1.0000 </r>
       <r>  -11.2487    1.0000 </r>
       <r>  -10.6238    1.0000 </r>
       <r>  -10.6027    1.0000 </r>
       <r>  -10.3292    1.0000 </r>
       <r>  -10.3171    1.0000 </r>
       <r>   -9.7883    1.0000 </r>
       <r>   -9.3491    1.0000 </r>
       <r>   -9.1575    1.0000 </r>
       <r>   -9.0802    1.0000 </r>
       <r>   -9.0658    1.0000 </r>
       <r>   -8.6279    1.0000 </r>
       <r>   -8.0640    1.0000 </r>
       <r>   -8.0549    1.0000 </r>
       <r>   -7.5172    1.0000 </r>
       <r>   -7.1891    1.0000 </r>
       <r>   -6.6850    1.0000 </r>
       <r>   -5.7513    1.0000 </r>
       <r>   -5.7409    1.0000 </r>
       <r>   -5.2118    1.0000 </r>
       <r>   -5.0503    1.0000 </r>
       <r>   -5.0401    1.0000 </r>
       <r>   -0.9499    0.0000 </r>
       <r>   -0.5960    0.0000 </r>
       <r>   -0.5768    0.0000 </r>
       <r>    0.0907    0.0000 </r>
       <r>    0.1090    0.0000 </r>
       <r>    1.1734    0.0000 </r>
       <r>    1.6816    0.0000 </r>
       <r>    1.9735    0.0000 </r>
       <r>    2.3052    0.0000 </r>
       <r>    2.4864    0.0000 </r>
      </set>
      <set comment="kpoint 11">
       <r>  -22.0954    1.0000 </r>
       <r>  -20.6168    1.0000 </r>
       <r>  -20.6057    1.0000 </r>
       <r>  -19.5309    1.0000 </r>
       <r>  -19.5073    1.0000 </r>
       <r>  -18.4610    1.0000 </r>
       <r>  -18.4493    1.0000 </r>
       <r>  -16.7781    1.0000 </r>
       <r>  -16.1698    1.0000 </r>
       <r>  -15.2233    1.0000 </r>
       <r>  -14.2678    1.0000 </r>
       <r>  -14.1773    1.0000 </r>
       <r>  -14.1481    1.0000 </r>
       <r>  -12.5938    1.0000 </r>
       <r>  -12.3046    1.0000 </r>
       <r>  -12.2948    1.0000 </r>
       <r>  -12.2748    1.0000 </r>
       <r>  -10.5116    1.0000 </r>
       <r>  -10.4708    1.0000 </r>
       <r>  -10.1683    1.0000 </r>
       <r>   -9.2128    1.0000 </r>
       <r>   -9.1724    1.0000 </r>
       <r>   -9.1231    1.0000 </r>
       <r>   -9.1058    1.0000 </r>
       <r>   -8.4300    1.0000 </r>
       <r>   -8.4215    1.0000 </r>
       <r>   -8.0877    1.0000 </r>
       <r>   -8.0490    1.0000 </r>
       <r>   -7.2059    1.0000 </r>
       <r>   -7.1824    1.0000 </r>
       <r>   -6.4348    1.0000 </r>
       <r>   -6.1041    1.0000 </r>
       <r>   -6.1031    1.0000 </r>
       <r>   -6.0970    1.0000 </r>
       <r>   -4.2500    1.0000 </r>
       <r>   -3.9124    1.0000 </r>
       <r>   -1.6926    0.0000 </r>
       <r>   -1.2773    0.0000 </r>
       <r>    0.2549    0.0000 </r>
       <r>    0.2744    0.0000 </r>
       <r>    0.7376    0.0000 </r>
       <r>    1.5326    0.0000 </r>
       <r>    1.8584    0.0000 </r>
       <r>    2.0056    0.0000 </r>
       <r>    2.0384    0.0000 </r>
       <r>    2.7776    0.0000 </r>
      </set>
      <set comment="kpoint 12">
       <r>  -22.0954    1.0000 </r>
       <r>  -20.6173    1.0000 </r>
       <r>  -20.6049    1.0000 </r>
       <r>  -19.5345    1.0000 </r>
       <r>  -19.5053    1.0000 </r>
       <r>  -18.4611    1.0000 </r>
       <r>  -18.4487    1.0000 </r>
       <r>  -16.7800    1.0000 </r>
       <r>  -16.1533    1.0000 </r>
       <r>  -15.2578    1.0000 </r>
       <r>  -14.2441    1.0000 </r>
       <r>  -14.1692    1.0000 </r>
       <r>  -14.1379    1.0000 </r>
       <r>  -12.6166    1.0000 </r>
       <r>  -12.3278    1.0000 </r>
       <r>  -12.3095    1.0000 </r>
       <r>  -12.2584    1.0000 </r>
       <r>  -10.5008    1.0000 </r>
       <r>  -10.4631    1.0000 </r>
       <r>  -10.1685    1.0000 </r>
       <r>   -9.1689    1.0000 </r>
       <r>   -9.1642    1.0000 </r>
       <r>   -9.1397    1.0000 </r>
       <r>   -9.1140    1.0000 </r>
       <r>   -8.4317    1.0000 </r>
       <r>   -8.4215    1.0000 </r>
       <r>   -8.0986    1.0000 </r>
       <r>   -8.0619    1.0000 </r>
       <r>   -7.2005    1.0000 </r>
       <r>   -7.1750    1.0000 </r>
       <r>   -6.3821    1.0000 </r>
       <r>   -6.1571    1.0000 </r>
       <r>   -6.1159    1.0000 </r>
       <r>   -6.1009    1.0000 </r>
       <r>   -4.2659    1.0000 </r>
       <r>   -3.8861    1.0000 </r>
       <r>   -1.7283    0.0000 </r>
       <r>   -1.2529    0.0000 </r>
       <r>    0.2686    0.0000 </r>
       <r>    0.2953    0.0000 </r>
       <r>    0.7375    0.0000 </r>
       <r>    1.5326    0.0000 </r>
       <r>    1.8584    0.0000 </r>
       <r>    1.9860    0.0000 </r>
       <r>    2.0184    0.0000 </r>
       <r>    2.7775    0.0000 </r>
      </set>
      <set comment="kpoint 13">
       <r>  -22.0954    1.0000 </r>
       <r>  -20.6117    1.0000 </r>
       <r>  -20.6107    1.0000 </r>
       <r>  -19.5200    1.0000 </r>
       <r>  -19.5192    1.0000 </r>
       <r>  -18.4550    1.0000 </r>
       <r>  -18.4549    1.0000 </r>
       <r>  -16.7784    1.0000 </r>
       <r>  -16.1621    1.0000 </r>
       <r>  -15.2404    1.0000 </r>
       <r>  -14.2606    1.0000 </r>
       <r>  -14.1651    1.0000 </r>
       <r>  -14.1467    1.0000 </r>
       <r>  -12.6049    1.0000 </r>
       <r>  -12.3154    1.0000 </r>
       <r>  -12.3055    1.0000 </r>
       <r>  -12.2645    1.0000 </r>
       <r>  -10.5009    1.0000 </r>
       <r>  -10.4718    1.0000 </r>
       <r>  -10.1684    1.0000 </r>
       <r>   -9.1834    1.0000 </r>
       <r>   -9.1756    1.0000 </r>
       <r>   -9.1315    1.0000 </r>
       <r>   -9.1098    1.0000 </r>
       <r>   -8.4281    1.0000 </r>
       <r>   -8.4243    1.0000 </r>
       <r>   -8.0924    1.0000 </r>
       <r>   -8.0564    1.0000 </r>
       <r>   -7.1923    1.0000 </r>
       <r>   -7.1897    1.0000 </r>
       <r>   -6.4106    1.0000 </r>
       <r>   -6.1280    1.0000 </r>
       <r>   -6.1110    1.0000 </r>
       <r>   -6.0980    1.0000 </r>
       <r>   -4.2576    1.0000 </r>
       <r>   -3.8995    1.0000 </r>
       <r>   -1.7103    0.0000 </r>
       <r>   -1.2655    0.0000 </r>
       <r>    0.2593    0.0000 </r>
       <r>    0.2874    0.0000 </r>
       <r>    0.7375    0.0000 </r>
       <r>    1.5326    0.0000 </r>
       <r>    1.8584    0.0000 </r>
       <r>    2.0074    0.0000 </r>
       <r>    2.0167    0.0000 </r>
       <r>    2.7775    0.0000 </r>
      </set>
      <set comment="kpoint 14">
       <r>  -21.8818    1.0000 </r>
       <r>  -21.1383    1.0000 </r>
       <r>  -20.7686    1.0000 </r>
       <r>  -19.6743    1.0000 </r>
       <r>  -18.9579    1.0000 </r>
       <r>  -17.9174    1.0000 </r>
       <r>  -17.5958    1.0000 </r>
       <r>  -17.5695    1.0000 </r>
       <r>  -16.6753    1.0000 </r>
       <r>  -15.2698    1.0000 </r>
       <r>  -15.2315    1.0000 </r>
       <r>  -14.6354    1.0000 </r>
       <r>  -13.7357    1.0000 </r>
       <r>  -12.8129    1.0000 </r>
       <r>  -11.8896    1.0000 </r>
       <r>  -11.6673    1.0000 </r>
       <r>  -11.3994    1.0000 </r>
       <r>  -10.0515    1.0000 </r>
       <r>   -9.9140    1.0000 </r>
       <r>   -9.9100    1.0000 </r>
       <r>   -9.7099    1.0000 </r>
       <r>   -9.6462    1.0000 </r>
       <r>   -9.2777    1.0000 </r>
       <r>   -9.2685    1.0000 </r>
       <r>   -9.0369    1.0000 </r>
       <r>   -8.6077    1.0000 </r>
       <r>   -8.2683    1.0000 </r>
       <r>   -7.5628    1.0000 </r>
       <r>   -7.3576    1.0000 </r>
       <r>   -7.1690    1.0000 </r>
       <r>   -6.5702    1.0000 </r>
       <r>   -6.5173    1.0000 </r>
       <r>   -5.5804    1.0000 </r>
       <r>   -5.3748    1.0000 </r>
       <r>   -5.0688    1.0000 </r>
       <r>   -4.4438    1.0000 </r>
       <r>   -1.2797    0.0000 </r>
       <r>   -0.7054    0.0000 </r>
       <r>   -0.4339    0.0000 </r>
       <r>   -0.3006    0.0000 </r>
       <r>    1.0283    0.0000 </r>
       <r>    1.2314    0.0000 </r>
       <r>    1.8267    0.0000 </r>
       <r>    2.0446    0.0000 </r>
       <r>    2.1563    0.0000 </r>
       <r>    2.4147    0.0000 </r>
      </set>
      <set comment="kpoint 15">
       <r>  -21.8817    1.0000 </r>
       <r>  -21.1382    1.0000 </r>
       <r>  -20.7688    1.0000 </r>
       <r>  -19.6748    1.0000 </r>
       <r>  -18.9586    1.0000 </r>
       <r>  -17.9173    1.0000 </r>
       <r>  -17.5942    1.0000 </r>
       <r>  -17.5726    1.0000 </r>
       <r>  -16.6665    1.0000 </r>
       <r>  -15.2693    1.0000 </r>
       <r>  -15.2487    1.0000 </r>
       <r>  -14.6246    1.0000 </r>
       <r>  -13.7140    1.0000 </r>
       <r>  -12.8332    1.0000 </r>
       <r>  -11.9144    1.0000 </r>
       <r>  -11.6903    1.0000 </r>
       <r>  -11.3769    1.0000 </r>
       <r>  -10.0264    1.0000 </r>
       <r>   -9.9145    1.0000 </r>
       <r>   -9.9062    1.0000 </r>
       <r>   -9.7242    1.0000 </r>
       <r>   -9.6206    1.0000 </r>
       <r>   -9.2926    1.0000 </r>
       <r>   -9.2581    1.0000 </r>
       <r>   -9.0373    1.0000 </r>
       <r>   -8.6076    1.0000 </r>
       <r>   -8.2706    1.0000 </r>
       <r>   -7.5733    1.0000 </r>
       <r>   -7.3532    1.0000 </r>
       <r>   -7.1266    1.0000 </r>
       <r>   -6.5627    1.0000 </r>
       <r>   -6.5614    1.0000 </r>
       <r>   -5.5911    1.0000 </r>
       <r>   -5.3860    1.0000 </r>
       <r>   -5.0811    1.0000 </r>
       <r>   -4.4197    1.0000 </r>
       <r>   -1.3165    0.0000 </r>
       <r>   -0.6843    0.0000 </r>
       <r>   -0.4128    0.0000 </r>
       <r>   -0.2784    0.0000 </r>
       <r>    1.0282    0.0000 </r>
       <r>    1.2112    0.0000 </r>
       <r>    1.8267    0.0000 </r>
       <r>    2.0447    0.0000 </r>
       <r>    2.1563    0.0000 </r>
       <r>    2.3992    0.0000 </r>
      </set>
      <set comment="kpoint 16">
       <r>  -21.8817    1.0000 </r>
       <r>  -21.1377    1.0000 </r>
       <r>  -20.7693    1.0000 </r>
       <r>  -19.6750    1.0000 </r>
       <r>  -18.9580    1.0000 </r>
       <r>  -17.9167    1.0000 </r>
       <r>  -17.6014    1.0000 </r>
       <r>  -17.5659    1.0000 </r>
       <r>  -16.6714    1.0000 </r>
       <r>  -15.2517    1.0000 </r>
       <r>  -15.2411    1.0000 </r>
       <r>  -14.6444    1.0000 </r>
       <r>  -13.7320    1.0000 </r>
       <r>  -12.8176    1.0000 </r>
       <r>  -11.8935    1.0000 </r>
       <r>  -11.6909    1.0000 </r>
       <r>  -11.3889    1.0000 </r>
       <r>  -10.0458    1.0000 </r>
       <r>   -9.9337    1.0000 </r>
       <r>   -9.9144    1.0000 </r>
       <r>   -9.6993    1.0000 </r>
       <r>   -9.6215    1.0000 </r>
       <r>   -9.2960    1.0000 </r>
       <r>   -9.2450    1.0000 </r>
       <r>   -9.0388    1.0000 </r>
       <r>   -8.6053    1.0000 </r>
       <r>   -8.2375    1.0000 </r>
       <r>   -7.6004    1.0000 </r>
       <r>   -7.3524    1.0000 </r>
       <r>   -7.1308    1.0000 </r>
       <r>   -6.5700    1.0000 </r>
       <r>   -6.5573    1.0000 </r>
       <r>   -5.5742    1.0000 </r>
       <r>   -5.3966    1.0000 </r>
       <r>   -5.0712    1.0000 </r>
       <r>   -4.4346    1.0000 </r>
       <r>   -1.2938    0.0000 </r>
       <r>   -0.6676    0.0000 </r>
       <r>   -0.4306    0.0000 </r>
       <r>   -0.3095    0.0000 </r>
       <r>    1.0282    0.0000 </r>
       <r>    1.2311    0.0000 </r>
       <r>    1.8267    0.0000 </r>
       <r>    2.0446    0.0000 </r>
       <r>    2.1563    0.0000 </r>
       <r>    2.3958    0.0000 </r>
      </set>
      <set comment="kpoint 17">
       <r>  -21.8816    1.0000 </r>
       <r>  -21.1379    1.0000 </r>
       <r>  -20.7691    1.0000 </r>
       <r>  -19.6754    1.0000 </r>
       <r>  -18.9581    1.0000 </r>
       <r>  -17.9170    1.0000 </r>
       <r>  -17.5983    1.0000 </r>
       <r>  -17.5698    1.0000 </r>
       <r>  -16.6663    1.0000 </r>
       <r>  -15.2702    1.0000 </r>
       <r>  -15.2367    1.0000 </r>
       <r>  -14.6341    1.0000 </r>
       <r>  -13.7191    1.0000 </r>
       <r>  -12.8299    1.0000 </r>
       <r>  -11.9080    1.0000 </r>
       <r>  -11.6973    1.0000 </r>
       <r>  -11.3784    1.0000 </r>
       <r>  -10.0292    1.0000 </r>
       <r>   -9.9269    1.0000 </r>
       <r>   -9.9146    1.0000 </r>
       <r>   -9.7121    1.0000 </r>
       <r>   -9.6118    1.0000 </r>
       <r>   -9.2968    1.0000 </r>
       <r>   -9.2486    1.0000 </r>
       <r>   -9.0384    1.0000 </r>
       <r>   -8.6059    1.0000 </r>
       <r>   -8.2490    1.0000 </r>
       <r>   -7.5946    1.0000 </r>
       <r>   -7.3514    1.0000 </r>
       <r>   -7.1146    1.0000 </r>
       <r>   -6.5744    1.0000 </r>
       <r>   -6.5649    1.0000 </r>
       <r>   -5.5835    1.0000 </r>
       <r>   -5.3966    1.0000 </r>
       <r>   -5.0790    1.0000 </r>
       <r>   -4.4214    1.0000 </r>
       <r>   -1.3138    0.0000 </r>
       <r>   -0.6665    0.0000 </r>
       <r>   -0.4140    0.0000 </r>
       <r>   -0.2948    0.0000 </r>
       <r>    1.0282    0.0000 </r>
       <r>    1.2176    0.0000 </r>
       <r>    1.8266    0.0000 </r>
       <r>    2.0446    0.0000 </r>
       <r>    2.1563    0.0000 </r>
       <r>    2.3920    0.0000 </r>
      </set>
      <set comment="kpoint 18">
       <r>  -21.8818    1.0000 </r>
       <r>  -21.1380    1.0000 </r>
       <r>  -20.7691    1.0000 </r>
       <r>  -19.6744    1.0000 </r>
       <r>  -18.9577    1.0000 </r>
       <r>  -17.9165    1.0000 </r>
       <r>  -17.5949    1.0000 </r>
       <r>  -17.5719    1.0000 </r>
       <r>  -16.6757    1.0000 </r>
       <r>  -15.2544    1.0000 </r>
       <r>  -15.2358    1.0000 </r>
       <r>  -14.6444    1.0000 </r>
       <r>  -13.7402    1.0000 </r>
       <r>  -12.8088    1.0000 </r>
       <r>  -11.8845    1.0000 </r>
       <r>  -11.6757    1.0000 </r>
       <r>  -11.3997    1.0000 </r>
       <r>  -10.0575    1.0000 </r>
       <r>   -9.9257    1.0000 </r>
       <r>   -9.9141    1.0000 </r>
       <r>   -9.6984    1.0000 </r>
       <r>   -9.6386    1.0000 </r>
       <r>   -9.2897    1.0000 </r>
       <r>   -9.2510    1.0000 </r>
       <r>   -9.0380    1.0000 </r>
       <r>   -8.6063    1.0000 </r>
       <r>   -8.2478    1.0000 </r>
       <r>   -7.5836    1.0000 </r>
       <r>   -7.3556    1.0000 </r>
       <r>   -7.1578    1.0000 </r>
       <r>   -6.5724    1.0000 </r>
       <r>   -6.5287    1.0000 </r>
       <r>   -5.5725    1.0000 </r>
       <r>   -5.3853    1.0000 </r>
       <r>   -5.0670    1.0000 </r>
       <r>   -4.4457    1.0000 </r>
       <r>   -1.2767    0.0000 </r>
       <r>   -0.6860    0.0000 </r>
       <r>   -0.4404    0.0000 </r>
       <r>   -0.3135    0.0000 </r>
       <r>    1.0283    0.0000 </r>
       <r>    1.2379    0.0000 </r>
       <r>    1.8267    0.0000 </r>
       <r>    2.0447    0.0000 </r>
       <r>    2.1563    0.0000 </r>
       <r>    2.5528    0.0000 </r>
      </set>
      <set comment="kpoint 19">
       <r>  -21.8818    1.0000 </r>
       <r>  -21.1383    1.0000 </r>
       <r>  -20.7686    1.0000 </r>
       <r>  -19.6742    1.0000 </r>
       <r>  -18.9588    1.0000 </r>
       <r>  -17.9179    1.0000 </r>
       <r>  -17.5990    1.0000 </r>
       <r>  -17.5655    1.0000 </r>
       <r>  -16.6711    1.0000 </r>
       <r>  -15.2655    1.0000 </r>
       <r>  -15.2496    1.0000 </r>
       <r>  -14.6259    1.0000 </r>
       <r>  -13.7222    1.0000 </r>
       <r>  -12.8252    1.0000 </r>
       <r>  -11.9043    1.0000 </r>
       <r>  -11.6760    1.0000 </r>
       <r>  -11.3872    1.0000 </r>
       <r>  -10.0356    1.0000 </r>
       <r>   -9.9142    1.0000 </r>
       <r>   -9.8976    1.0000 </r>
       <r>   -9.7246    1.0000 </r>
       <r>   -9.6372    1.0000 </r>
       <r>   -9.2831    1.0000 </r>
       <r>   -9.2685    1.0000 </r>
       <r>   -9.0365    1.0000 </r>
       <r>   -8.6085    1.0000 </r>
       <r>   -8.2798    1.0000 </r>
       <r>   -7.5581    1.0000 </r>
       <r>   -7.3562    1.0000 </r>
       <r>   -7.1538    1.0000 </r>
       <r>   -6.5656    1.0000 </r>
       <r>   -6.5330    1.0000 </r>
       <r>   -5.5898    1.0000 </r>
       <r>   -5.3756    1.0000 </r>
       <r>   -5.0750    1.0000 </r>
       <r>   -4.4310    1.0000 </r>
       <r>   -1.2994    0.0000 </r>
       <r>   -0.7046    0.0000 </r>
       <r>   -0.4230    0.0000 </r>
       <r>   -0.2802    0.0000 </r>
       <r>    1.0282    0.0000 </r>
       <r>    1.2181    0.0000 </r>
       <r>    1.8267    0.0000 </r>
       <r>    2.0447    0.0000 </r>
       <r>    2.1563    0.0000 </r>
       <r>    2.4105    0.0000 </r>
      </set>
      <set comment="kpoint 20">
       <r>  -21.5685    1.0000 </r>
       <r>  -21.5561    1.0000 </r>
       <r>  -20.8213    1.0000 </r>
       <r>  -19.7260    1.0000 </r>
       <r>  -18.3217    1.0000 </r>
       <r>  -18.2912    1.0000 </r>
       <r>  -17.3246    1.0000 </r>
       <r>  -17.2928    1.0000 </r>
       <r>  -16.9796    1.0000 </r>
       <r>  -15.9547    1.0000 </r>
       <r>  -15.0117    1.0000 </r>
       <r>  -14.9981    1.0000 </r>
       <r>  -13.2901    1.0000 </r>
       <r>  -13.2725    1.0000 </r>
       <r>  -11.3427    1.0000 </r>
       <r>  -10.9981    1.0000 </r>
       <r>  -10.9793    1.0000 </r>
       <r>  -10.5159    1.0000 </r>
       <r>  -10.4941    1.0000 </r>
       <r>   -9.9233    1.0000 </r>
       <r>   -9.6156    1.0000 </r>
       <r>   -9.5399    1.0000 </r>
       <r>   -9.5310    1.0000 </r>
       <r>   -9.3234    1.0000 </r>
       <r>   -8.6686    1.0000 </r>
       <r>   -8.4412    1.0000 </r>
       <r>   -8.1588    1.0000 </r>
       <r>   -8.1246    1.0000 </r>
       <r>   -7.4118    1.0000 </r>
       <r>   -7.0535    1.0000 </r>
       <r>   -7.0117    1.0000 </r>
       <r>   -5.8684    1.0000 </r>
       <r>   -5.8426    1.0000 </r>
       <r>   -5.0507    1.0000 </r>
       <r>   -5.0290    1.0000 </r>
       <r>   -5.0017    1.0000 </r>
       <r>   -1.1116    0.0000 </r>
       <r>   -0.8300    0.0000 </r>
       <r>   -0.8032    0.0000 </r>
       <r>    0.3958    0.0000 </r>
       <r>    0.4237    0.0000 </r>
       <r>    1.4635    0.0000 </r>
       <r>    1.4648    0.0000 </r>
       <r>    2.2670    0.0000 </r>
       <r>    2.2673    0.0000 </r>
       <r>    2.6031    0.0000 </r>
      </set>
      <set comment="kpoint 21">
       <r>  -21.5624    1.0000 </r>
       <r>  -21.5620    1.0000 </r>
       <r>  -20.8216    1.0000 </r>
       <r>  -19.7263    1.0000 </r>
       <r>  -18.3068    1.0000 </r>
       <r>  -18.3059    1.0000 </r>
       <r>  -17.3093    1.0000 </r>
       <r>  -17.3058    1.0000 </r>
       <r>  -16.9875    1.0000 </r>
       <r>  -15.9391    1.0000 </r>
       <r>  -15.0205    1.0000 </r>
       <r>  -14.9983    1.0000 </r>
       <r>  -13.2946    1.0000 </r>
       <r>  -13.2691    1.0000 </r>
       <r>  -11.3592    1.0000 </r>
       <r>  -11.0031    1.0000 </r>
       <r>  -10.9733    1.0000 </r>
       <r>  -10.5121    1.0000 </r>
       <r>  -10.4876    1.0000 </r>
       <r>   -9.9057    1.0000 </r>
       <r>   -9.6348    1.0000 </r>
       <r>   -9.5363    1.0000 </r>
       <r>   -9.5357    1.0000 </r>
       <r>   -9.3358    1.0000 </r>
       <r>   -8.6674    1.0000 </r>
       <r>   -8.4187    1.0000 </r>
       <r>   -8.1337    1.0000 </r>
       <r>   -8.1165    1.0000 </r>
       <r>   -7.4092    1.0000 </r>
       <r>   -7.0610    1.0000 </r>
       <r>   -7.0422    1.0000 </r>
       <r>   -5.8619    1.0000 </r>
       <r>   -5.8500    1.0000 </r>
       <r>   -5.0645    1.0000 </r>
       <r>   -5.0221    1.0000 </r>
       <r>   -5.0010    1.0000 </r>
       <r>   -1.0892    0.0000 </r>
       <r>   -0.8426    0.0000 </r>
       <r>   -0.8036    0.0000 </r>
       <r>    0.3972    0.0000 </r>
       <r>    0.4249    0.0000 </r>
       <r>    1.4640    0.0000 </r>
       <r>    1.4641    0.0000 </r>
       <r>    2.2670    0.0000 </r>
       <r>    2.2671    0.0000 </r>
       <r>    2.5062    0.0000 </r>
      </set>
      <set comment="kpoint 22">
       <r>  -21.5671    1.0000 </r>
       <r>  -21.5569    1.0000 </r>
       <r>  -20.8219    1.0000 </r>
       <r>  -19.7270    1.0000 </r>
       <r>  -18.3189    1.0000 </r>
       <r>  -18.2932    1.0000 </r>
       <r>  -17.3203    1.0000 </r>
       <r>  -17.2935    1.0000 </r>
       <r>  -16.9936    1.0000 </r>
       <r>  -15.9235    1.0000 </r>
       <r>  -15.0238    1.0000 </r>
       <r>  -15.0050    1.0000 </r>
       <r>  -13.2921    1.0000 </r>
       <r>  -13.2737    1.0000 </r>
       <r>  -11.3744    1.0000 </r>
       <r>  -10.9955    1.0000 </r>
       <r>  -10.9783    1.0000 </r>
       <r>  -10.5009    1.0000 </r>
       <r>  -10.4890    1.0000 </r>
       <r>   -9.8877    1.0000 </r>
       <r>   -9.6543    1.0000 </r>
       <r>   -9.5413    1.0000 </r>
       <r>   -9.5317    1.0000 </r>
       <r>   -9.3482    1.0000 </r>
       <r>   -8.6661    1.0000 </r>
       <r>   -8.3991    1.0000 </r>
       <r>   -8.1265    1.0000 </r>
       <r>   -8.0846    1.0000 </r>
       <r>   -7.4067    1.0000 </r>
       <r>   -7.0991    1.0000 </r>
       <r>   -7.0466    1.0000 </r>
       <r>   -5.8679    1.0000 </r>
       <r>   -5.8450    1.0000 </r>
       <r>   -5.0784    1.0000 </r>
       <r>   -5.0170    1.0000 </r>
       <r>   -4.9980    1.0000 </r>
       <r>   -1.0682    0.0000 </r>
       <r>   -0.8399    0.0000 </r>
       <r>   -0.8182    0.0000 </r>
       <r>    0.4022    0.0000 </r>
       <r>    0.4225    0.0000 </r>
       <r>    1.4635    0.0000 </r>
       <r>    1.4646    0.0000 </r>
       <r>    2.2666    0.0000 </r>
       <r>    2.2673    0.0000 </r>
       <r>    2.4858    0.0000 </r>
      </set>
      <set comment="kpoint 23">
       <r>  -21.6156    1.0000 </r>
       <r>  -21.2490    1.0000 </r>
       <r>  -21.2385    1.0000 </r>
       <r>  -19.0723    1.0000 </r>
       <r>  -19.0479    1.0000 </r>
       <r>  -18.3561    1.0000 </r>
       <r>  -17.0912    1.0000 </r>
       <r>  -17.0835    1.0000 </r>
       <r>  -16.7185    1.0000 </r>
       <r>  -15.6618    1.0000 </r>
       <r>  -15.6303    1.0000 </r>
       <r>  -15.6094    1.0000 </r>
       <r>  -12.9315    1.0000 </r>
       <r>  -12.2588    1.0000 </r>
       <r>  -12.2480    1.0000 </r>
       <r>  -11.3392    1.0000 </r>
       <r>  -10.5826    1.0000 </r>
       <r>  -10.5651    1.0000 </r>
       <r>  -10.5436    1.0000 </r>
       <r>   -9.8204    1.0000 </r>
       <r>   -9.8059    1.0000 </r>
       <r>   -9.5983    1.0000 </r>
       <r>   -9.1660    1.0000 </r>
       <r>   -9.1567    1.0000 </r>
       <r>   -8.8413    1.0000 </r>
       <r>   -8.7954    1.0000 </r>
       <r>   -7.9065    1.0000 </r>
       <r>   -7.7129    1.0000 </r>
       <r>   -7.6648    1.0000 </r>
       <r>   -7.0567    1.0000 </r>
       <r>   -6.6790    1.0000 </r>
       <r>   -6.6557    1.0000 </r>
       <r>   -5.8889    1.0000 </r>
       <r>   -5.0057    1.0000 </r>
       <r>   -4.9914    1.0000 </r>
       <r>   -4.6860    1.0000 </r>
       <r>   -1.2073    0.0000 </r>
       <r>   -1.0471    0.0000 </r>
       <r>   -1.0237    0.0000 </r>
       <r>    0.5172    0.0000 </r>
       <r>    1.3917    0.0000 </r>
       <r>    1.4763    0.0000 </r>
       <r>    1.5034    0.0000 </r>
       <r>    1.8995    0.0000 </r>
       <r>    1.9006    0.0000 </r>
       <r>    2.1939    0.0000 </r>
      </set>
      <set comment="kpoint 24">
       <r>  -21.6153    1.0000 </r>
       <r>  -21.2501    1.0000 </r>
       <r>  -21.2377    1.0000 </r>
       <r>  -19.0754    1.0000 </r>
       <r>  -19.0458    1.0000 </r>
       <r>  -18.3554    1.0000 </r>
       <r>  -17.1006    1.0000 </r>
       <r>  -17.0820    1.0000 </r>
       <r>  -16.7039    1.0000 </r>
       <r>  -15.6936    1.0000 </r>
       <r>  -15.6198    1.0000 </r>
       <r>  -15.5944    1.0000 </r>
       <r>  -12.9048    1.0000 </r>
       <r>  -12.2856    1.0000 </r>
       <r>  -12.2616    1.0000 </r>
       <r>  -11.3689    1.0000 </r>
       <r>  -10.5468    1.0000 </r>
       <r>  -10.5441    1.0000 </r>
       <r>  -10.5310    1.0000 </r>
       <r>   -9.8385    1.0000 </r>
       <r>   -9.8133    1.0000 </r>
       <r>   -9.5993    1.0000 </r>
       <r>   -9.1656    1.0000 </r>
       <r>   -9.1562    1.0000 </r>
       <r>   -8.8472    1.0000 </r>
       <r>   -8.8046    1.0000 </r>
       <r>   -7.8614    1.0000 </r>
       <r>   -7.7035    1.0000 </r>
       <r>   -7.6582    1.0000 </r>
       <r>   -7.1047    1.0000 </r>
       <r>   -6.6754    1.0000 </r>
       <r>   -6.6498    1.0000 </r>
       <r>   -5.8981    1.0000 </r>
       <r>   -5.0229    1.0000 </r>
       <r>   -5.0011    1.0000 </r>
       <r>   -4.6594    1.0000 </r>
       <r>   -1.2486    0.0000 </r>
       <r>   -1.0276    0.0000 </r>
       <r>   -0.9989    0.0000 </r>
       <r>    0.5398    0.0000 </r>
       <r>    1.3916    0.0000 </r>
       <r>    1.4601    0.0000 </r>
       <r>    1.4913    0.0000 </r>
       <r>    1.8994    0.0000 </r>
       <r>    1.9009    0.0000 </r>
       <r>    2.1938    0.0000 </r>
      </set>
      <set comment="kpoint 25">
       <r>  -21.6155    1.0000 </r>
       <r>  -21.2441    1.0000 </r>
       <r>  -21.2435    1.0000 </r>
       <r>  -19.0612    1.0000 </r>
       <r>  -19.0598    1.0000 </r>
       <r>  -18.3554    1.0000 </r>
       <r>  -17.0937    1.0000 </r>
       <r>  -17.0849    1.0000 </r>
       <r>  -16.7111    1.0000 </r>
       <r>  -15.6769    1.0000 </r>
       <r>  -15.6268    1.0000 </r>
       <r>  -15.6011    1.0000 </r>
       <r>  -12.9183    1.0000 </r>
       <r>  -12.2740    1.0000 </r>
       <r>  -12.2532    1.0000 </r>
       <r>  -11.3542    1.0000 </r>
       <r>  -10.5623    1.0000 </r>
       <r>  -10.5566    1.0000 </r>
       <r>  -10.5367    1.0000 </r>
       <r>   -9.8317    1.0000 </r>
       <r>   -9.8076    1.0000 </r>
       <r>   -9.5988    1.0000 </r>
       <r>   -9.1620    1.0000 </r>
       <r>   -9.1601    1.0000 </r>
       <r>   -8.8441    1.0000 </r>
       <r>   -8.7999    1.0000 </r>
       <r>   -7.8848    1.0000 </r>
       <r>   -7.7091    1.0000 </r>
       <r>   -7.6607    1.0000 </r>
       <r>   -7.0802    1.0000 </r>
       <r>   -6.6681    1.0000 </r>
       <r>   -6.6621    1.0000 </r>
       <r>   -5.8935    1.0000 </r>
       <r>   -5.0176    1.0000 </r>
       <r>   -4.9928    1.0000 </r>
       <r>   -4.6727    1.0000 </r>
       <r>   -1.2281    0.0000 </r>
       <r>   -1.0445    0.0000 </r>
       <r>   -1.0041    0.0000 </r>
       <r>    0.5285    0.0000 </r>
       <r>    1.3916    0.0000 </r>
       <r>    1.4735    0.0000 </r>
       <r>    1.4921    0.0000 </r>
       <r>    1.9000    0.0000 </r>
       <r>    1.9002    0.0000 </r>
       <r>    2.1938    0.0000 </r>
      </set>
     </set>
    </set>
   </array>
  </eigenvalues>
  <separator name="orbital magnetization" >
   <v name="MAGDIPOLOUT">      0.00000000      0.00000000      0.00000000</v>
  </separator>
  <dos>
   <i name="efermi">     -2.75504705 </i>
   <total>
    <array>
     <dimension dim="1">gridpoints</dimension>
     <dimension dim="2">spin</dimension>
     <field>energy</field>
     <field>total</field>
     <field>integrated</field>
     <set>
      <set comment="spin 1">
       <r>   -23.5114     0.0000     0.0000 </r>
       <r>   -23.4193     0.0000     0.0000 </r>
       <r>   -23.3273     0.0000     0.0000 </r>
       <r>   -23.2352     0.0000     0.0000 </r>
       <r>   -23.1431     0.0000     0.0000 </r>
       <r>   -23.0511     0.0000     0.0000 </r>
       <r>   -22.9590     0.0000     0.0000 </r>
       <r>   -22.8670     0.0000     0.0000 </r>
       <r>   -22.7749     0.0000     0.0000 </r>
       <r>   -22.6828     0.0000     0.0000 </r>
       <r>   -22.5908     0.0000     0.0000 </r>
       <r>   -22.4987     0.0000     0.0000 </r>
       <r>   -22.4067     0.0000     0.0000 </r>
       <r>   -22.3146     0.0236     0.0022 </r>
       <r>   -22.2225     1.1018     0.1036 </r>
       <r>   -22.1305     2.3659     0.3214 </r>
       <r>   -22.0384     3.5655     0.6497 </r>
       <r>   -21.9464     1.5378     0.7912 </r>
       <r>   -21.8543     4.0190     1.1612 </r>
       <r>   -21.7622     2.8374     1.4224 </r>
       <r>   -21.6702     1.1180     1.5253 </r>
       <r>   -21.5781     3.8510     1.8799 </r>
       <r>   -21.4861     3.9023     2.2391 </r>
       <r>   -21.3940     1.6549     2.3915 </r>
       <r>   -21.3019     1.3371     2.5145 </r>
       <r>   -21.2099     4.2562     2.9064 </r>
       <r>   -21.1178     4.6061     3.3304 </r>
       <r>   -21.0258     1.5124     3.4697 </r>
       <r>   -20.9337     1.1237     3.5731 </r>
       <r>   -20.8416     2.3775     3.7920 </r>
       <r>   -20.7496     5.5270     4.3008 </r>
       <r>   -20.6575     2.1223     4.4962 </r>
       <r>   -20.5655     4.2764     4.8899 </r>
       <r>   -20.4734     0.5317     4.9388 </r>
       <r>   -20.3813     0.5423     4.9887 </r>
       <r>   -20.2893     5.1530     5.4631 </r>
       <r>   -20.1972     4.6782     5.8938 </r>
       <r>   -20.1052     2.8873     6.1596 </r>
       <r>   -20.0131     1.1905     6.2692 </r>
       <r>   -19.9210     3.9538     6.6332 </r>
       <r>   -19.8290     0.2209     6.6535 </r>
       <r>   -19.7369     1.3727     6.7799 </r>
       <r>   -19.6449     7.5500     7.4750 </r>
       <r>   -19.5528     2.6903     7.7226 </r>
       <r>   -19.4607     4.0453     8.0950 </r>
       <r>   -19.3687     0.3069     8.1233 </r>
       <r>   -19.2766     1.8455     8.2932 </r>
       <r>   -19.1845     3.3814     8.6045 </r>
       <r>   -19.0925     1.1135     8.7070 </r>
       <r>   -19.0004     4.6373     9.1339 </r>
       <r>   -18.9084     5.8114     9.6689 </r>
       <r>   -18.8163     2.0606     9.8586 </r>
       <r>   -18.7242     4.0404    10.2306 </r>
       <r>   -18.6322     1.0406    10.3264 </r>
       <r>   -18.5401     0.0473    10.3307 </r>
       <r>   -18.4481     3.0368    10.6103 </r>
       <r>   -18.3560     4.0237    10.9807 </r>
       <r>   -18.2639     5.5127    11.4882 </r>
       <r>   -18.1719     2.5889    11.7265 </r>
       <r>   -18.0798     4.1782    12.1112 </r>
       <r>   -17.9878     1.9734    12.2929 </r>
       <r>   -17.8957     3.7936    12.6421 </r>
       <r>   -17.8036     1.4456    12.7752 </r>
       <r>   -17.7116     0.0070    12.7758 </r>
       <r>   -17.6195     1.8217    12.9435 </r>
       <r>   -17.5275     8.6014    13.7354 </r>
       <r>   -17.4354     4.9864    14.1944 </r>
       <r>   -17.3433     1.4563    14.3285 </r>
       <r>   -17.2513     4.7544    14.7662 </r>
       <r>   -17.1592     2.3879    14.9860 </r>
       <r>   -17.0672     3.8524    15.3407 </r>
       <r>   -16.9751     3.0675    15.6231 </r>
       <r>   -16.8830     0.9906    15.7143 </r>
       <r>   -16.7910     1.5656    15.8584 </r>
       <r>   -16.6989     8.6774    16.6572 </r>
       <r>   -16.6069     5.5244    17.1658 </r>
       <r>   -16.5148     0.1940    17.1837 </r>
       <r>   -16.4227     0.0000    17.1837 </r>
       <r>   -16.3307     0.0000    17.1837 </r>
       <r>   -16.2386     0.0435    17.1877 </r>
       <r>   -16.1466     1.7218    17.3462 </r>
       <r>   -16.0545     1.1773    17.4546 </r>
       <r>   -15.9624     4.7783    17.8945 </r>
       <r>   -15.8704     2.8298    18.1550 </r>
       <r>   -15.7783     0.6016    18.2104 </r>
       <r>   -15.6863     3.2341    18.5081 </r>
       <r>   -15.5942     5.2451    18.9909 </r>
       <r>   -15.5021     1.6421    19.1421 </r>
       <r>   -15.4101     0.0832    19.1498 </r>
       <r>   -15.3180     1.6795    19.3044 </r>
       <r>   -15.2260     9.7609    20.2030 </r>
       <r>   -15.1339     3.5455    20.5294 </r>
       <r>   -15.0418     1.0265    20.6239 </r>
       <r>   -14.9498     4.8969    21.0747 </r>
       <r>   -14.8577     4.3798    21.4779 </r>
       <r>   -14.7657     1.3756    21.6045 </r>
       <r>   -14.6736     2.8228    21.8644 </r>
       <r>   -14.5815     8.4036    22.6380 </r>
       <r>   -14.4895     1.0493    22.7346 </r>
       <r>   -14.3974     0.1104    22.7448 </r>
       <r>   -14.3054     3.7559    23.0905 </r>
       <r>   -14.2133     4.1799    23.4753 </r>
       <r>   -14.1212     4.3431    23.8752 </r>
       <r>   -14.0292     0.9963    23.9669 </r>
       <r>   -13.9371     3.3473    24.2750 </r>
       <r>   -13.8451     1.8824    24.4483 </r>
       <r>   -13.7530     1.2868    24.5668 </r>
       <r>   -13.6609     3.9634    24.9317 </r>
       <r>   -13.5689     2.3336    25.1465 </r>
       <r>   -13.4768     4.2876    25.5412 </r>
       <r>   -13.3848     1.4491    25.6746 </r>
       <r>   -13.2927     2.4561    25.9007 </r>
       <r>   -13.2006     3.6610    26.2378 </r>
       <r>   -13.1086     0.0783    26.2450 </r>
       <r>   -13.0165     0.9066    26.3284 </r>
       <r>   -12.9245     9.2123    27.1765 </r>
       <r>   -12.8324     5.1735    27.6528 </r>
       <r>   -12.7403     3.2584    27.9528 </r>
       <r>   -12.6483     0.3868    27.9884 </r>
       <r>   -12.5562     2.1026    28.1819 </r>
       <r>   -12.4642     0.2943    28.2090 </r>
       <r>   -12.3721     1.5671    28.3533 </r>
       <r>   -12.2800     7.9089    29.0814 </r>
       <r>   -12.1880     8.6998    29.8823 </r>
       <r>   -12.0959     3.0071    30.1591 </r>
       <r>   -12.0039     0.0570    30.1644 </r>
       <r>   -11.9118     1.9301    30.3420 </r>
       <r>   -11.8197     3.3578    30.6512 </r>
       <r>   -11.7277     3.7059    30.9923 </r>
       <r>   -11.6356     6.4028    31.5818 </r>
       <r>   -11.5436     0.5524    31.6326 </r>
       <r>   -11.4515     0.2532    31.6559 </r>
       <r>   -11.3594     6.4416    32.2489 </r>
       <r>   -11.2674     6.0814    32.8088 </r>
       <r>   -11.1753     3.3810    33.1201 </r>
       <r>   -11.0833     5.4874    33.6252 </r>
       <r>   -10.9912     4.7604    34.0635 </r>
       <r>   -10.8991     2.8136    34.3225 </r>
       <r>   -10.8071     0.0439    34.3265 </r>
       <r>   -10.7150     0.0068    34.3272 </r>
       <r>   -10.6229     1.6519    34.4792 </r>
       <r>   -10.5309    10.8701    35.4799 </r>
       <r>   -10.4388    10.5304    36.4494 </r>
       <r>   -10.3468     2.9709    36.7229 </r>
       <r>   -10.2547     5.8955    37.2656 </r>
       <r>   -10.1626     2.0800    37.4571 </r>
       <r>   -10.0706     4.3631    37.8587 </r>
       <r>    -9.9785     4.9174    38.3114 </r>
       <r>    -9.8865    10.7780    39.3037 </r>
       <r>    -9.7944     9.9759    40.2221 </r>
       <r>    -9.7023     6.3075    40.8027 </r>
       <r>    -9.6103     8.6543    41.5994 </r>
       <r>    -9.5182     8.9893    42.4270 </r>
       <r>    -9.4262     5.4354    42.9274 </r>
       <r>    -9.3341     3.9087    43.2872 </r>
       <r>    -9.2420    10.1932    44.2256 </r>
       <r>    -9.1500    12.1255    45.3419 </r>
       <r>    -9.0579    14.6907    46.6943 </r>
       <r>    -8.9659     6.9322    47.3325 </r>
       <r>    -8.8738     3.2921    47.6356 </r>
       <r>    -8.7817    12.0408    48.7440 </r>
       <r>    -8.6897     7.0055    49.3890 </r>
       <r>    -8.5976     7.4803    50.0776 </r>
       <r>    -8.5056     6.9248    50.7151 </r>
       <r>    -8.4135     8.1696    51.4672 </r>
       <r>    -8.3214     3.3771    51.7781 </r>
       <r>    -8.2294     3.9305    52.1399 </r>
       <r>    -8.1373     5.7354    52.6679 </r>
       <r>    -8.0453    13.4649    53.9075 </r>
       <r>    -7.9532     5.4937    54.4133 </r>
       <r>    -7.8611     4.9012    54.8645 </r>
       <r>    -7.7691     1.2712    54.9815 </r>
       <r>    -7.6770     8.2554    55.7415 </r>
       <r>    -7.5850     7.1457    56.3993 </r>
       <r>    -7.4929     5.0475    56.8640 </r>
       <r>    -7.4008     3.0355    57.1435 </r>
       <r>    -7.3088     7.3055    57.8160 </r>
       <r>    -7.2167     2.4116    58.0380 </r>
       <r>    -7.1247     9.8857    58.9481 </r>
       <r>    -7.0326     7.5694    59.6449 </r>
       <r>    -6.9405     3.7182    59.9872 </r>
       <r>    -6.8485     3.5785    60.3167 </r>
       <r>    -6.7564     0.1654    60.3319 </r>
       <r>    -6.6644     4.3623    60.7335 </r>
       <r>    -6.5723    10.5031    61.7004 </r>
       <r>    -6.4802     8.7712    62.5079 </r>
       <r>    -6.3882     4.1385    62.8889 </r>
       <r>    -6.2961     4.0785    63.2644 </r>
       <r>    -6.2041     1.7263    63.4233 </r>
       <r>    -6.1120     4.9150    63.8758 </r>
       <r>    -6.0199     5.0216    64.3380 </r>
       <r>    -5.9279     2.7252    64.5889 </r>
       <r>    -5.8358     7.9011    65.3163 </r>
       <r>    -5.7438     7.1427    65.9739 </r>
       <r>    -5.6517     3.5028    66.2963 </r>
       <r>    -5.5596     3.7777    66.6441 </r>
       <r>    -5.4676     1.4892    66.7812 </r>
       <r>    -5.3755     3.1905    67.0749 </r>
       <r>    -5.2835     2.0840    67.2668 </r>
       <r>    -5.1914     1.5335    67.4079 </r>
       <r>    -5.0993     3.2905    67.7109 </r>
       <r>    -5.0073    15.4825    69.1362 </r>
       <r>    -4.9152     6.2132    69.7082 </r>
       <r>    -4.8232     0.0664    69.7143 </r>
       <r>    -4.7311     0.1522    69.7283 </r>
       <r>    -4.6390     2.0251    69.9147 </r>
       <r>    -4.5470     0.4868    69.9596 </r>
       <r>    -4.4549     1.4489    70.0929 </r>
       <r>    -4.3629     3.9318    70.4549 </r>
       <r>    -4.2708     5.0383    70.9187 </r>
       <r>    -4.1787     2.8385    71.1800 </r>
       <r>    -4.0867     0.0394    71.1837 </r>
       <r>    -3.9946     0.0130    71.1849 </r>
       <r>    -3.9026     1.2253    71.2977 </r>
       <r>    -3.8105     1.4005    71.4266 </r>
       <r>    -3.7184     0.0214    71.4286 </r>
       <r>    -3.6264     0.0174    71.4302 </r>
       <r>    -3.5343     2.2086    71.6335 </r>
       <r>    -3.4423     3.0382    71.9132 </r>
       <r>    -3.3502     0.0562    71.9184 </r>
       <r>    -3.2581     0.0000    71.9184 </r>
       <r>    -3.1661     0.0000    71.9184 </r>
       <r>    -3.0740     0.0000    71.9184 </r>
       <r>    -2.9820     0.0000    71.9184 </r>
       <r>    -2.8899     0.0007    71.9184 </r>
       <r>    -2.7978     0.2620    71.9425 </r>
       <r>    -2.7058     1.3134    72.0635 </r>
       <r>    -2.6137     0.1972    72.0816 </r>
       <r>    -2.5217     0.0003    72.0816 </r>
       <r>    -2.4296     0.0000    72.0816 </r>
       <r>    -2.3375     0.0000    72.0816 </r>
       <r>    -2.2455     0.0000    72.0816 </r>
       <r>    -2.1534     0.0001    72.0816 </r>
       <r>    -2.0613     0.3352    72.1125 </r>
       <r>    -1.9693     4.0680    72.4870 </r>
       <r>    -1.8772     0.9155    72.5713 </r>
       <r>    -1.7852     0.0684    72.5776 </r>
       <r>    -1.6931     1.7251    72.7364 </r>
       <r>    -1.6010     0.8629    72.8158 </r>
       <r>    -1.5090     0.0053    72.8163 </r>
       <r>    -1.4169     0.0051    72.8168 </r>
       <r>    -1.3249     2.0848    73.0087 </r>
       <r>    -1.2328    11.1685    74.0369 </r>
       <r>    -1.1407     2.9392    74.3075 </r>
       <r>    -1.0487     3.5324    74.6327 </r>
       <r>    -0.9566     5.6700    75.1547 </r>
       <r>    -0.8646     1.9497    75.3341 </r>
       <r>    -0.7725     4.1190    75.7133 </r>
       <r>    -0.6804     3.4283    76.0290 </r>
       <r>    -0.5884     4.7664    76.4677 </r>
       <r>    -0.4963     2.9971    76.7437 </r>
       <r>    -0.4043     3.7468    77.0886 </r>
       <r>    -0.3122     3.3268    77.3949 </r>
       <r>    -0.2201     5.1512    77.8691 </r>
       <r>    -0.1281     0.9738    77.9587 </r>
       <r>    -0.0360     0.0056    77.9592 </r>
       <r>     0.0560     0.5790    78.0125 </r>
       <r>     0.1481     4.1391    78.3936 </r>
       <r>     0.2402     1.6293    78.5436 </r>
       <r>     0.3322     4.0587    78.9172 </r>
       <r>     0.4243     3.6297    79.2514 </r>
       <r>     0.5163     3.1427    79.5407 </r>
       <r>     0.6084     3.6441    79.8762 </r>
       <r>     0.7005     1.3454    80.0000 </r>
       <r>     0.7925     5.8177    80.5356 </r>
       <r>     0.8846     5.9086    81.0795 </r>
       <r>     0.9766     1.5080    81.2184 </r>
       <r>     1.0687     4.2766    81.6121 </r>
       <r>     1.1608     1.8401    81.7815 </r>
       <r>     1.2528     5.6245    82.2993 </r>
       <r>     1.3449     2.1335    82.4957 </r>
       <r>     1.4369     7.0189    83.1418 </r>
       <r>     1.5290    13.8548    84.4173 </r>
       <r>     1.6211     4.5940    84.8402 </r>
       <r>     1.7131     4.6697    85.2701 </r>
       <r>     1.8052     3.3519    85.5787 </r>
       <r>     1.8972     8.8228    86.3909 </r>
       <r>     1.9893     8.9119    87.2114 </r>
       <r>     2.0814     9.1698    88.0555 </r>
       <r>     2.1734     6.9701    88.6972 </r>
       <r>     2.2655     6.8751    89.3301 </r>
       <r>     2.3575     7.3163    90.0037 </r>
       <r>     2.4496     4.9828    90.4624 </r>
       <r>     2.5417     4.3265    90.8607 </r>
       <r>     2.6337     2.9984    91.1367 </r>
       <r>     2.7258     2.2168    91.3408 </r>
       <r>     2.8178     4.5296    91.7578 </r>
       <r>     2.9099     2.5012    91.9881 </r>
       <r>     3.0020     0.1297    92.0000 </r>
       <r>     3.0940     0.0000    92.0000 </r>
       <r>     3.1861     0.0000    92.0000 </r>
       <r>     3.2781     0.0000    92.0000 </r>
       <r>     3.3702     0.0000    92.0000 </r>
       <r>     3.4623     0.0000    92.0000 </r>
       <r>     3.5543     0.0000    92.0000 </r>
       <r>     3.6464     0.0000    92.0000 </r>
       <r>     3.7384     0.0000    92.0000 </r>
       <r>     3.8305     0.0000    92.0000 </r>
       <r>     3.9226     0.0000    92.0000 </r>
       <r>     4.0146     0.0000    92.0000 </r>
       <r>     4.1067     0.0000    92.0000 </r>
      </set>
     </set>
    </array>
   </total>
  </dos>
 </calculation>
 <structure name="finalpos" >
  <crystal>
   <varray name="basis" >
    <v>       7.40170591       0.00000000       0.00000000 </v>
    <v>      -3.70085295       6.41006527       0.00000000 </v>
    <v>       0.00000000       0.00000000      20.00000000 </v>
   </varray>
   <i name="volume">    948.90835877 </i>
   <varray name="rec_basis" >
    <v>       0.13510399       0.07800233       0.00000000 </v>
    <v>       0.00000000       0.15600465       0.00000000 </v>
    <v>       0.00000000       0.00000000       0.05000000 </v>
   </varray>
  </crystal>
  <varray name="positions" >
   <v>       0.00135104       0.00000000       0.50000000 </v>
   <v>       0.33333333       0.00000000       0.50000000 </v>
   <v>       0.66666667       0.00000000       0.50000000 </v>
   <v>       0.00000000       0.33333333       0.50000000 </v>
   <v>       0.33333333       0.33333333       0.50000000 </v>
   <v>       0.66666667       0.33333333       0.50000000 </v>
   <v>       0.00000000       0.66666667       0.50000000 </v>
   <v>       0.33333333       0.66666667       0.50000000 </v>
   <v>       0.66666667       0.66666667       0.50000000 </v>
   <v>       0.22087118       0.11111111       0.50000000 </v>
   <v>       0.55555556       0.11111111       0.50000000 </v>
   <v>       0.88888889       0.11111111       0.50000000 </v>
   <v>       0.22222222       0.44444444       0.50000000 </v>
   <v>       0.55555556       0.44444444       0.50000000 </v>
   <v>       0.88888889       0.44444444       0.50000000 </v>
   <v>       0.22222222       0.77777778       0.50000000 </v>
   <v>       0.55555556       0.77777778       0.50000000 </v>
   <v>       0.88888889       0.77777778       0.50000000 </v>
  </varray>
 </structure>
</modeling>
